
     Program PWSCF v.6.1 (svn rev. 13369) starts on  7Nov2017 at 15:35:36 

     This program is part of the open-source Quantum ESPRESSO suite
     for quantum simulation of materials; please cite
         "P. Giannozzi et al., J. Phys.:Condens. Matter 21 395502 (2009);
          URL http://www.quantum-espresso.org", 
     in publications or presentations arising from this work. More details at
     http://www.quantum-espresso.org/quote

     Parallel version (MPI), running on     4 processors
     R & G space division:  proc/nbgrp/npool/nimage =       4
     Waiting for input...
     Reading input from standard input

     Current dimensions of program PWSCF are:
     Max number of different atomic species (ntypx) = 10
     Max number of k-points (npk) =  40000
     Max angular momentum in pseudopotentials (lmaxx) =  3
               file H.pz-vbc.UPF: wavefunction(s)  1S renormalized

     Subspace diagonalization in iterative solution of the eigenvalue problem:
     a serial algorithm will be used

 
     Parallelization info
     --------------------
     sticks:   dense  smooth     PW     G-vecs:    dense   smooth      PW
     Min         950     950    237                35358    35358    4415
     Max         951     951    238                35361    35361    4418
     Sum        3801    3801    949               141439   141439   17663
 


     bravais-lattice index     =            8
     lattice parameter (alat)  =      24.4531  a.u.
     unit-cell volume          =   11697.4160 (a.u.)^3
     number of atoms/cell      =           12
     number of atomic types    =            2
     number of electrons       =        30.00
     number of Kohn-Sham states=           15
     kinetic-energy cutoff     =      20.0000  Ry
     charge density cutoff     =      80.0000  Ry
     convergence threshold     =      1.0E-10
     mixing beta               =       0.7000
     number of iterations used =            8  plain     mixing
     Exchange-correlation      =  SLA  PZ   NOGX NOGC ( 1  1  0  0 0 0)

     celldm(1)=  24.453066  celldm(2)=   1.000000  celldm(3)=   0.800000
     celldm(4)=   0.000000  celldm(5)=   0.000000  celldm(6)=   0.000000

     crystal axes: (cart. coord. in units of alat)
               a(1) = (   1.000000   0.000000   0.000000 )  
               a(2) = (   0.000000   1.000000   0.000000 )  
               a(3) = (   0.000000   0.000000   0.800000 )  

     reciprocal axes: (cart. coord. in units 2 pi/alat)
               b(1) = (  1.000000  0.000000  0.000000 )  
               b(2) = (  0.000000  1.000000  0.000000 )  
               b(3) = (  0.000000  0.000000  1.250000 )  


     PseudoPot. # 1 for C  read from file:
     ./pseudo/C.pz-vbc.UPF
     MD5 check sum: ab53dd623bfeb79c5a7b057bc96eae20
     Pseudo is Norm-conserving, Zval =  4.0
     Generated by new atomic code, or converted to UPF format
     Using radial grid of  269 points,  1 beta functions with: 
                l(1) =   0

     PseudoPot. # 2 for H  read from file:
     ./pseudo/H.pz-vbc.UPF
     MD5 check sum: 90becb985b714f09656c73597998d266
     Pseudo is Norm-conserving, Zval =  1.0
     Generated by new atomic code, or converted to UPF format
     Using radial grid of  131 points,  0 beta functions with: 

     atomic species   valence    mass     pseudopotential
        C              4.00    12.00000     C ( 1.00)
        H              1.00     1.00000     H ( 1.00)

     No symmetry found



   Cartesian axes

     site n.     atom                  positions (alat units)
         1           H   tau(   1) = (   0.3075733   0.3863986   0.2704790  )
         2           C   tau(   2) = (   0.3925810   0.3863986   0.2704790  )
         3           C   tau(   3) = (   0.4462904   0.4794260   0.2704790  )
         4           H   tau(   4) = (   0.4037865   0.5530449   0.2704790  )
         5           C   tau(   5) = (   0.4462904   0.2933712   0.2704790  )
         6           H   tau(   6) = (   0.4037865   0.2197524   0.2704790  )
         7           C   tau(   7) = (   0.5537092   0.4794260   0.2704790  )
         8           H   tau(   8) = (   0.5962131   0.5530449   0.2704790  )
         9           C   tau(   9) = (   0.5537092   0.2933712   0.2704790  )
        10           H   tau(  10) = (   0.5962131   0.2197524   0.2704790  )
        11           C   tau(  11) = (   0.6074186   0.3863986   0.2704790  )
        12           H   tau(  12) = (   0.6924263   0.3863986   0.2704790  )

     number of k points=     1
                       cart. coord. in units 2pi/alat
        k(    1) = (   0.0000000   0.0000000   0.0000000), wk =   2.0000000

     Dense  grid:   141439 G-vectors     FFT dimensions: (  72,  72,  60)

     Estimated max dynamical RAM per process >      25.61MB

     Estimated total allocated dynamical RAM >     102.45MB

     Initial potential from superposition of free atoms
     Check: negative starting charge=   -0.086637

     starting charge   29.99967, renormalised to   30.00000

     negative rho (up, down):  8.664E-02 0.000E+00
     Starting wfc are   30 randomized atomic wfcs

     total cpu time spent up to now is        0.2 secs

     per-process dynamical memory:    29.1 Mb

     Self-consistent Calculation

     iteration #  1     ecut=    20.00 Ry     beta=0.70
     Davidson diagonalization with overlap
     ethr =  1.00E-02,  avg # of iterations =  2.0

     negative rho (up, down):  2.420E-02 0.000E+00

     total cpu time spent up to now is        0.3 secs

     total energy              =     -72.83928222 Ry
     Harris-Foulkes estimate   =     -73.48277492 Ry
     estimated scf accuracy    <       1.03750161 Ry

     iteration #  2     ecut=    20.00 Ry     beta=0.70
     Davidson diagonalization with overlap
     ethr =  3.46E-03,  avg # of iterations =  2.0

     negative rho (up, down):  1.093E-02 0.000E+00

     total cpu time spent up to now is        0.5 secs

     total energy              =     -73.00425464 Ry
     Harris-Foulkes estimate   =     -73.16958174 Ry
     estimated scf accuracy    <       0.27389965 Ry

     iteration #  3     ecut=    20.00 Ry     beta=0.70
     Davidson diagonalization with overlap
     ethr =  9.13E-04,  avg # of iterations =  2.0

     negative rho (up, down):  1.150E-03 0.000E+00

     total cpu time spent up to now is        0.7 secs

     total energy              =     -73.07597312 Ry
     Harris-Foulkes estimate   =     -73.08790168 Ry
     estimated scf accuracy    <       0.02251293 Ry

     iteration #  4     ecut=    20.00 Ry     beta=0.70
     Davidson diagonalization with overlap
     ethr =  7.50E-05,  avg # of iterations =  2.0

     negative rho (up, down):  2.948E-05 0.000E+00

     total cpu time spent up to now is        0.9 secs

     total energy              =     -73.08051330 Ry
     Harris-Foulkes estimate   =     -73.08056038 Ry
     estimated scf accuracy    <       0.00015409 Ry

     iteration #  5     ecut=    20.00 Ry     beta=0.70
     Davidson diagonalization with overlap
     ethr =  5.14E-07,  avg # of iterations =  2.0

     total cpu time spent up to now is        1.1 secs

     total energy              =     -73.08056623 Ry
     Harris-Foulkes estimate   =     -73.08056690 Ry
     estimated scf accuracy    <       0.00000899 Ry

     iteration #  6     ecut=    20.00 Ry     beta=0.70
     Davidson diagonalization with overlap
     ethr =  3.00E-08,  avg # of iterations =  2.0

     total cpu time spent up to now is        1.2 secs

     total energy              =     -73.08056711 Ry
     Harris-Foulkes estimate   =     -73.08056716 Ry
     estimated scf accuracy    <       0.00000016 Ry

     iteration #  7     ecut=    20.00 Ry     beta=0.70
     Davidson diagonalization with overlap
     ethr =  5.27E-10,  avg # of iterations =  3.0

     total cpu time spent up to now is        1.4 secs

     total energy              =     -73.08056720 Ry
     Harris-Foulkes estimate   =     -73.08056720 Ry
     estimated scf accuracy    <       0.00000002 Ry

     iteration #  8     ecut=    20.00 Ry     beta=0.70
     Davidson diagonalization with overlap
     ethr =  7.22E-11,  avg # of iterations =  2.0

     total cpu time spent up to now is        1.6 secs

     total energy              =     -73.08056720 Ry
     Harris-Foulkes estimate   =     -73.08056720 Ry
     estimated scf accuracy    <          7.0E-10 Ry

     iteration #  9     ecut=    20.00 Ry     beta=0.70
     Davidson diagonalization with overlap
     ethr =  2.32E-12,  avg # of iterations =  3.0

     total cpu time spent up to now is        1.8 secs

     total energy              =     -73.08056720 Ry
     Harris-Foulkes estimate   =     -73.08056720 Ry
     estimated scf accuracy    <          1.0E-10 Ry

     iteration # 10     ecut=    20.00 Ry     beta=0.70
     Davidson diagonalization with overlap
     ethr =  3.48E-13,  avg # of iterations =  3.0

     total cpu time spent up to now is        2.0 secs

     End of self-consistent calculation

          k = 0.0000 0.0000 0.0000 ( 17663 PWs)   bands (ev):

   -21.4017 -18.4384 -18.4378 -14.6471 -14.6390 -12.6737 -10.7375 -10.6200
    -9.7983  -9.7957  -9.0147  -7.6568  -7.6477  -6.1135  -6.1102

     highest occupied level (ev):    -6.1102

!    total energy              =     -73.08056720 Ry
     Harris-Foulkes estimate   =     -73.08056720 Ry
     estimated scf accuracy    <          1.5E-11 Ry

     The total energy is the sum of the following terms:

     one-electron contribution =    -298.92122501 Ry
     hartree contribution      =     152.28942619 Ry
     xc contribution           =     -24.31802692 Ry
     ewald contribution        =      97.86925854 Ry

     convergence has been achieved in  10 iterations

     Forces acting on atoms (cartesian axes, Ry/au):

     atom    1 type  2   force =    -0.06503419   -0.00001383    0.00001233
     atom    2 type  1   force =    -0.09122652    0.00009204   -0.00001268
     atom    3 type  1   force =    -0.04679435    0.07836341   -0.00001103
     atom    4 type  2   force =    -0.03228311    0.05604889    0.00001283
     atom    5 type  1   force =    -0.04680722   -0.07842067   -0.00001469
     atom    6 type  2   force =    -0.03228178   -0.05606980    0.00001322
     atom    7 type  1   force =     0.04679442    0.07836340   -0.00001103
     atom    8 type  2   force =     0.03228307    0.05604879    0.00001283
     atom    9 type  1   force =     0.04680717   -0.07842067   -0.00001466
     atom   10 type  2   force =     0.03228180   -0.05606982    0.00001323
     atom   11 type  1   force =     0.09122654    0.00009209   -0.00001268
     atom   12 type  2   force =     0.06503417   -0.00001382    0.00001234

     Total force =     0.274199     Total SCF correction =     0.000007

     Writing output data file c6h6.save
 
     init_run     :      0.14s CPU      0.15s WALL (       1 calls)
     electrons    :      1.62s CPU      1.84s WALL (       1 calls)
     forces       :      0.04s CPU      0.04s WALL (       1 calls)

     Called by init_run:
     wfcinit      :      0.07s CPU      0.08s WALL (       1 calls)
     potinit      :      0.02s CPU      0.02s WALL (       1 calls)

     Called by electrons:
     c_bands      :      1.10s CPU      1.20s WALL (      10 calls)
     sum_band     :      0.26s CPU      0.31s WALL (      10 calls)
     v_of_rho     :      0.08s CPU      0.08s WALL (      11 calls)
     mix_rho      :      0.17s CPU      0.21s WALL (      10 calls)

     Called by c_bands:
     init_us_2    :      0.02s CPU      0.01s WALL (      21 calls)
     cegterg      :      1.08s CPU      1.19s WALL (      10 calls)

     Called by sum_band:

     Called by *egterg:
     h_psi        :      0.99s CPU      1.06s WALL (      34 calls)
     g_psi        :      0.01s CPU      0.01s WALL (      23 calls)
     cdiaghg      :      0.01s CPU      0.03s WALL (      33 calls)

     Called by h_psi:
     h_psi:pot    :      0.95s CPU      1.03s WALL (      34 calls)
     h_psi:calbec :      0.02s CPU      0.02s WALL (      34 calls)
     vloc_psi     :      0.91s CPU      0.99s WALL (      34 calls)
     add_vuspsi   :      0.02s CPU      0.02s WALL (      34 calls)

     General routines
     calbec       :      0.02s CPU      0.02s WALL (      38 calls)
     fft          :      0.13s CPU      0.14s WALL (      45 calls)
     fftw         :      0.91s CPU      1.00s WALL (    1056 calls)
     davcio       :      0.00s CPU      0.00s WALL (       1 calls)
 
     Parallel routines
     fft_scatter  :      0.30s CPU      0.35s WALL (    1101 calls)
 
     PWSCF        :     1.83s CPU         2.06s WALL

 
   This run was terminated on:  15:35:38   7Nov2017            

=------------------------------------------------------------------------------=
   JOB DONE.
=------------------------------------------------------------------------------=
