
     Program PWSCF v.6.3 starts on 20Feb2019 at 13:23:40 

     This program is part of the open-source Quantum ESPRESSO suite
     for quantum simulation of materials; please cite
         "P. Giannozzi et al., J. Phys.:Condens. Matter 21 395502 (2009);
         "P. Giannozzi et al., J. Phys.:Condens. Matter 29 465901 (2017);
          URL http://www.quantum-espresso.org", 
     in publications or presentations arising from this work. More details at
     http://www.quantum-espresso.org/quote

     Parallel version (MPI), running on     8 processors

     MPI processes distributed on     1 nodes
     R & G space division:  proc/nbgrp/npool/nimage =       8
     Waiting for input...
     Reading input from standard input

     Current dimensions of program PWSCF are:
     Max number of different atomic species (ntypx) = 10
     Max number of k-points (npk) =  40000
     Max angular momentum in pseudopotentials (lmaxx) =  3
               file H.pz-vbc.UPF: wavefunction(s)  1S renormalized

     Subspace diagonalization in iterative solution of the eigenvalue problem:
     a serial algorithm will be used

 
     Parallelization info
     --------------------
     sticks:   dense  smooth     PW     G-vecs:    dense   smooth      PW
     Min         711     711    179               120905   120905   15121
     Max         712     712    180               120910   120910   15125
     Sum        5689    5689   1433               967255   967255  120983
 


     bravais-lattice index     =            8
     lattice parameter (alat)  =      18.8973  a.u.
     unit-cell volume          =   20245.0037 (a.u.)^3
     number of atoms/cell      =           12
     number of atomic types    =            2
     number of electrons       =        30.00
     number of Kohn-Sham states=           16
     kinetic-energy cutoff     =      50.0000  Ry
     charge density cutoff     =     200.0000  Ry
     convergence threshold     =      1.0E-10
     mixing beta               =       0.7000
     number of iterations used =            8  plain     mixing
     Exchange-correlation      =  SLA  PZ   NOGX NOGC ( 1  1  0  0 0 0)

     celldm(1)=  18.897261  celldm(2)=   1.000000  celldm(3)=   3.000000
     celldm(4)=   0.000000  celldm(5)=   0.000000  celldm(6)=   0.000000

     crystal axes: (cart. coord. in units of alat)
               a(1) = (   1.000000   0.000000   0.000000 )  
               a(2) = (   0.000000   1.000000   0.000000 )  
               a(3) = (   0.000000   0.000000   3.000000 )  

     reciprocal axes: (cart. coord. in units 2 pi/alat)
               b(1) = (  1.000000  0.000000  0.000000 )  
               b(2) = (  0.000000  1.000000  0.000000 )  
               b(3) = (  0.000000  0.000000  0.333333 )  


     PseudoPot. # 1 for C  read from file:
     ./pseudo/C.pz-vbc.UPF
     MD5 check sum: ab53dd623bfeb79c5a7b057bc96eae20
     Pseudo is Norm-conserving, Zval =  4.0
     Generated by new atomic code, or converted to UPF format
     Using radial grid of  269 points,  1 beta functions with: 
                l(1) =   0

     PseudoPot. # 2 for H  read from file:
     ./pseudo/H.pz-vbc.UPF
     MD5 check sum: 90becb985b714f09656c73597998d266
     Pseudo is Norm-conserving, Zval =  1.0
     Generated by new atomic code, or converted to UPF format
     Using radial grid of  131 points,  0 beta functions with: 

     atomic species   valence    mass     pseudopotential
        C              4.00    12.00000     C ( 1.00)
        H              1.00     1.00000     H ( 1.00)

     No symmetry found



   Cartesian axes

     site n.     atom                  positions (alat units)
         1           C   tau(   1) = (   0.6383000   0.5000000   1.5000000  )
         2           C   tau(   2) = (   0.5691000   0.6197000   1.5000000  )
         3           C   tau(   3) = (   0.4309000   0.6197000   1.5000000  )
         4           C   tau(   4) = (   0.3617000   0.5000000   1.5000000  )
         5           C   tau(   5) = (   0.4309000   0.3803000   1.5000000  )
         6           C   tau(   6) = (   0.5691000   0.3803000   1.5000000  )
         7           H   tau(   7) = (   0.7463000   0.5000000   1.5000000  )
         8           H   tau(   8) = (   0.6231000   0.7133000   1.5000000  )
         9           H   tau(   9) = (   0.3769000   0.7133000   1.5000000  )
        10           H   tau(  10) = (   0.2537000   0.5000000   1.5000000  )
        11           H   tau(  11) = (   0.3769000   0.2867000   1.5000000  )
        12           H   tau(  12) = (   0.6231000   0.2867000   1.5000000  )

     number of k points=     1
                       cart. coord. in units 2pi/alat
        k(    1) = (   0.0000000   0.0000000   0.0000000), wk =   2.0000000

     Dense  grid:   967255 G-vectors     FFT dimensions: (  90,  90, 256)

     Estimated max dynamical RAM per process >     106.59 MB

     Estimated total dynamical RAM >     852.76 MB

     Initial potential from superposition of free atoms

     starting charge   29.99967, renormalised to   30.00000

     negative rho (up, down):  2.135E-02 0.000E+00
     Starting wfcs are   30 randomized atomic wfcs

     total cpu time spent up to now is        1.2 secs

     Self-consistent Calculation

     iteration #  1     ecut=    50.00 Ry     beta= 0.70
     Davidson diagonalization with overlap
     ethr =  1.00E-02,  avg # of iterations =  2.0

     negative rho (up, down):  6.167E-03 0.000E+00

     total cpu time spent up to now is        2.4 secs

     total energy              =     -74.56843726 Ry
     Harris-Foulkes estimate   =     -75.75550803 Ry
     estimated scf accuracy    <       1.71834985 Ry

     iteration #  2     ecut=    50.00 Ry     beta= 0.70
     Davidson diagonalization with overlap
     ethr =  5.73E-03,  avg # of iterations =  2.0

     negative rho (up, down):  3.083E-03 0.000E+00

     total cpu time spent up to now is        3.7 secs

     total energy              =     -74.91314044 Ry
     Harris-Foulkes estimate   =     -75.23704335 Ry
     estimated scf accuracy    <       0.54917896 Ry

     iteration #  3     ecut=    50.00 Ry     beta= 0.70
     Davidson diagonalization with overlap
     ethr =  1.83E-03,  avg # of iterations =  2.0

     negative rho (up, down):  5.845E-04 0.000E+00

     total cpu time spent up to now is        5.0 secs

     total energy              =     -75.05590176 Ry
     Harris-Foulkes estimate   =     -75.06930879 Ry
     estimated scf accuracy    <       0.02488566 Ry

     iteration #  4     ecut=    50.00 Ry     beta= 0.70
     Davidson diagonalization with overlap
     ethr =  8.30E-05,  avg # of iterations =  2.0

     negative rho (up, down):  1.013E-04 0.000E+00

     total cpu time spent up to now is        6.2 secs

     total energy              =     -75.06123526 Ry
     Harris-Foulkes estimate   =     -75.06125332 Ry
     estimated scf accuracy    <       0.00012257 Ry

     iteration #  5     ecut=    50.00 Ry     beta= 0.70
     Davidson diagonalization with overlap
     ethr =  4.09E-07,  avg # of iterations =  3.0

     negative rho (up, down):  2.022E-08 0.000E+00

     total cpu time spent up to now is        7.6 secs

     total energy              =     -75.06130315 Ry
     Harris-Foulkes estimate   =     -75.06131429 Ry
     estimated scf accuracy    <       0.00002717 Ry

     iteration #  6     ecut=    50.00 Ry     beta= 0.70
     Davidson diagonalization with overlap
     ethr =  9.06E-08,  avg # of iterations =  2.0

     total cpu time spent up to now is        8.8 secs

     total energy              =     -75.06130758 Ry
     Harris-Foulkes estimate   =     -75.06130764 Ry
     estimated scf accuracy    <       0.00000018 Ry

     iteration #  7     ecut=    50.00 Ry     beta= 0.70
     Davidson diagonalization with overlap
     ethr =  5.92E-10,  avg # of iterations =  3.0

     total cpu time spent up to now is       10.2 secs

     total energy              =     -75.06130765 Ry
     Harris-Foulkes estimate   =     -75.06130767 Ry
     estimated scf accuracy    <       0.00000005 Ry

     iteration #  8     ecut=    50.00 Ry     beta= 0.70
     Davidson diagonalization with overlap
     ethr =  1.53E-10,  avg # of iterations =  2.0

     total cpu time spent up to now is       11.4 secs

     total energy              =     -75.06130766 Ry
     Harris-Foulkes estimate   =     -75.06130766 Ry
     estimated scf accuracy    <          5.4E-09 Ry

     iteration #  9     ecut=    50.00 Ry     beta= 0.70
     Davidson diagonalization with overlap
     ethr =  1.81E-11,  avg # of iterations =  2.0

     total cpu time spent up to now is       12.7 secs

     total energy              =     -75.06130766 Ry
     Harris-Foulkes estimate   =     -75.06130766 Ry
     estimated scf accuracy    <          1.1E-09 Ry

     iteration # 10     ecut=    50.00 Ry     beta= 0.70
     Davidson diagonalization with overlap
     ethr =  3.56E-12,  avg # of iterations =  2.0

     total cpu time spent up to now is       13.9 secs

     End of self-consistent calculation

          k = 0.0000 0.0000 0.0000 (120983 PWs)   bands (ev):

   -21.2149 -18.3362 -18.3355 -14.7931 -14.7859 -13.0445 -11.1154 -10.9812
   -10.2339 -10.2297  -9.2896  -8.1778  -8.1642  -6.4503  -6.4487  -1.2019

     highest occupied, lowest unoccupied level (ev):    -6.4487   -1.2019

!    total energy              =     -75.06130766 Ry
     Harris-Foulkes estimate   =     -75.06130766 Ry
     estimated scf accuracy    <          6.4E-11 Ry

     The total energy is the sum of the following terms:

     one-electron contribution =    -462.08600290 Ry
     hartree contribution      =     233.86712931 Ry
     xc contribution           =     -24.74237202 Ry
     ewald contribution        =     177.89993795 Ry

     convergence has been achieved in  10 iterations

     Forces acting on atoms (cartesian axes, Ry/au):

     atom    1 type  1   force =    -0.00842613    0.00000016    0.00000000
     atom    2 type  1   force =    -0.00244781   -0.00588144   -0.00000001
     atom    3 type  1   force =     0.00244811   -0.00588123   -0.00000000
     atom    4 type  1   force =     0.00842438    0.00000008    0.00000000
     atom    5 type  1   force =     0.00244784    0.00588156   -0.00000000
     atom    6 type  1   force =    -0.00244743    0.00588180    0.00000004
     atom    7 type  2   force =     0.02002754   -0.00000001   -0.00000001
     atom    8 type  2   force =     0.00951692    0.01657251   -0.00000000
     atom    9 type  2   force =    -0.00951682    0.01657279   -0.00000000
     atom   10 type  2   force =    -0.02002660   -0.00000002   -0.00000001
     atom   11 type  2   force =    -0.00951712   -0.01657340   -0.00000000
     atom   12 type  2   force =     0.00951712   -0.01657280   -0.00000001

     Total force =     0.050670     Total SCF correction =     0.000017

     Writing output data file benzene.save/
 
     init_run     :      1.01s CPU      1.05s WALL (       1 calls)
     electrons    :     12.62s CPU     13.52s WALL (       1 calls)
     forces       :      0.20s CPU      0.20s WALL (       1 calls)

     Called by init_run:
     wfcinit      :      0.57s CPU      0.58s WALL (       1 calls)
     potinit      :      0.09s CPU      0.09s WALL (       1 calls)
     hinit0       :      0.07s CPU      0.08s WALL (       1 calls)

     Called by electrons:
     c_bands      :      9.17s CPU      9.24s WALL (      10 calls)
     sum_band     :      2.16s CPU      2.17s WALL (      10 calls)
     v_of_rho     :      0.48s CPU      0.48s WALL (      11 calls)
     mix_rho      :      0.74s CPU      0.75s WALL (      10 calls)

     Called by c_bands:
     init_us_2    :      0.03s CPU      0.03s WALL (      21 calls)
     cegterg      :      9.16s CPU      9.21s WALL (      10 calls)

     Called by sum_band:

     Called by *egterg:
     h_psi        :      9.01s CPU      9.05s WALL (      33 calls)
     g_psi        :      0.01s CPU      0.03s WALL (      22 calls)
     cdiaghg      :      0.02s CPU      0.06s WALL (      32 calls)

     Called by h_psi:
     h_psi:pot    :      8.97s CPU      8.98s WALL (      33 calls)
     h_psi:calbec :      0.06s CPU      0.06s WALL (      33 calls)
     vloc_psi     :      8.85s CPU      8.87s WALL (      33 calls)
     add_vuspsi   :      0.05s CPU      0.04s WALL (      33 calls)

     General routines
     calbec       :      0.07s CPU      0.07s WALL (      37 calls)
     fft          :      0.72s CPU      0.74s WALL (      34 calls)
     ffts         :      0.16s CPU      0.16s WALL (      10 calls)
     fftw         :      8.83s CPU      8.86s WALL (    1134 calls)
 
     Parallel routines
     fft_scatt_xy :      3.76s CPU      3.14s WALL (    1178 calls)
     fft_scatt_yz :      1.40s CPU      1.49s WALL (    1178 calls)
 
     PWSCF        :     13.92s CPU     21.01s WALL

 
   This run was terminated on:  13:24: 1  20Feb2019            

=------------------------------------------------------------------------------=
   JOB DONE.
=------------------------------------------------------------------------------=
