
     Program PWSCF v.6.3 starts on 18Feb2019 at 15:39:48 

     This program is part of the open-source Quantum ESPRESSO suite
     for quantum simulation of materials; please cite
         "P. Giannozzi et al., J. Phys.:Condens. Matter 21 395502 (2009);
         "P. Giannozzi et al., J. Phys.:Condens. Matter 29 465901 (2017);
          URL http://www.quantum-espresso.org", 
     in publications or presentations arising from this work. More details at
     http://www.quantum-espresso.org/quote

     Parallel version (MPI), running on     4 processors

     MPI processes distributed on     1 nodes
     R & G space division:  proc/nbgrp/npool/nimage =       4
     Waiting for input...
     Reading input from standard input

     Current dimensions of program PWSCF are:
     Max number of different atomic species (ntypx) = 10
     Max number of k-points (npk) =  40000
     Max angular momentum in pseudopotentials (lmaxx) =  3

     Subspace diagonalization in iterative solution of the eigenvalue problem:
     a serial algorithm will be used

 
     Parallelization info
     --------------------
     sticks:   dense  smooth     PW     G-vecs:    dense   smooth      PW
     Min         563     563    141                20327    20327    2532
     Max         564     564    143                20330    20330    2533
     Sum        2253    2253    569                81313    81313   10131
 


     bravais-lattice index     =            1
     lattice parameter (alat)  =      18.8973  a.u.
     unit-cell volume          =    6748.3346 (a.u.)^3
     number of atoms/cell      =            2
     number of atomic types    =            1
     number of electrons       =         2.00
     number of Kohn-Sham states=            1
     kinetic-energy cutoff     =      20.0000  Ry
     charge density cutoff     =      80.0000  Ry
     convergence threshold     =      1.0E-10
     mixing beta               =       0.7000
     number of iterations used =            8  plain     mixing
     Exchange-correlation      =  SLA  PZ   NOGX NOGC ( 1  1  0  0 0 0)

     celldm(1)=  18.897261  celldm(2)=   0.000000  celldm(3)=   0.000000
     celldm(4)=   0.000000  celldm(5)=   0.000000  celldm(6)=   0.000000

     crystal axes: (cart. coord. in units of alat)
               a(1) = (   1.000000   0.000000   0.000000 )  
               a(2) = (   0.000000   1.000000   0.000000 )  
               a(3) = (   0.000000   0.000000   1.000000 )  

     reciprocal axes: (cart. coord. in units 2 pi/alat)
               b(1) = (  1.000000  0.000000  0.000000 )  
               b(2) = (  0.000000  1.000000  0.000000 )  
               b(3) = (  0.000000  0.000000  1.000000 )  


     PseudoPot. # 1 for Na read from file:
     ./pseudo/Na.pz-n-vbc.UPF
     MD5 check sum: 6d1894a660f9c3bcde1a30e911e0e802
     Pseudo is Norm-conserving + core correction, Zval =  1.0
     Generated by new atomic code, or converted to UPF format
     Using radial grid of  169 points,  1 beta functions with: 
                l(1) =   0

     atomic species   valence    mass     pseudopotential
        Na             1.00    22.98977     Na( 1.00)

     No symmetry found



   Cartesian axes

     site n.     atom                  positions (alat units)
         1           Na  tau(   1) = (   0.3454625   0.5000000   0.5000000  )
         2           Na  tau(   2) = (   0.6545375   0.5000000   0.5000000  )

     number of k points=     1
                       cart. coord. in units 2pi/alat
        k(    1) = (   0.0000000   0.0000000   0.0000000), wk =   2.0000000

     Dense  grid:    81313 G-vectors     FFT dimensions: (  54,  54,  54)

     Estimated max dynamical RAM per process >      11.71 MB

     Estimated total dynamical RAM >      46.82 MB

     Initial potential from superposition of free atoms

     starting charge    1.99282, renormalised to    2.00000

     negative rho (up, down):  8.396E-03 0.000E+00
     Starting wfcs are    2 randomized atomic wfcs

     total cpu time spent up to now is        0.0 secs

     Self-consistent Calculation

     iteration #  1     ecut=    20.00 Ry     beta= 0.70
     Davidson diagonalization with overlap
     ethr =  1.00E-02,  avg # of iterations =  1.0

     Threshold (ethr) on eigenvalues was too large:
     Diagonalizing with lowered threshold

     Davidson diagonalization with overlap
     ethr =  1.97E-04,  avg # of iterations =  5.0

     negative rho (up, down):  7.106E-04 0.000E+00

     total cpu time spent up to now is        0.1 secs

     total energy              =      -1.26372564 Ry
     Harris-Foulkes estimate   =      -1.27573345 Ry
     estimated scf accuracy    <       0.02974299 Ry

     iteration #  2     ecut=    20.00 Ry     beta= 0.70
     Davidson diagonalization with overlap
     ethr =  1.49E-03,  avg # of iterations =  1.0

     total cpu time spent up to now is        0.1 secs

     total energy              =      -1.26337545 Ry
     Harris-Foulkes estimate   =      -1.26422686 Ry
     estimated scf accuracy    <       0.00208146 Ry

     iteration #  3     ecut=    20.00 Ry     beta= 0.70
     Davidson diagonalization with overlap
     ethr =  1.04E-04,  avg # of iterations =  4.0

     total cpu time spent up to now is        0.1 secs

     total energy              =      -1.27228442 Ry
     Harris-Foulkes estimate   =      -1.27111930 Ry
     estimated scf accuracy    <       0.01040026 Ry

     iteration #  4     ecut=    20.00 Ry     beta= 0.70
     Davidson diagonalization with overlap
     ethr =  1.04E-04,  avg # of iterations =  1.0

     total cpu time spent up to now is        0.1 secs

     total energy              =      -1.27469708 Ry
     Harris-Foulkes estimate   =      -1.27234784 Ry
     estimated scf accuracy    <       0.01266761 Ry

     iteration #  5     ecut=    20.00 Ry     beta= 0.70
     Davidson diagonalization with overlap
     ethr =  1.04E-04,  avg # of iterations =  1.0

     total cpu time spent up to now is        0.2 secs

     total energy              =      -1.26648144 Ry
     Harris-Foulkes estimate   =      -1.27477385 Ry
     estimated scf accuracy    <       0.01740691 Ry

     iteration #  6     ecut=    20.00 Ry     beta= 0.70
     Davidson diagonalization with overlap
     ethr =  1.04E-04,  avg # of iterations =  1.0

     total cpu time spent up to now is        0.2 secs

     total energy              =      -1.26595960 Ry
     Harris-Foulkes estimate   =      -1.26668434 Ry
     estimated scf accuracy    <       0.00161295 Ry

     iteration #  7     ecut=    20.00 Ry     beta= 0.70
     Davidson diagonalization with overlap
     ethr =  8.06E-05,  avg # of iterations =  4.0

     total cpu time spent up to now is        0.2 secs

     total energy              =      -1.27183934 Ry
     Harris-Foulkes estimate   =      -1.27128080 Ry
     estimated scf accuracy    <       0.01088916 Ry

     iteration #  8     ecut=    20.00 Ry     beta= 0.70
     Davidson diagonalization with overlap
     ethr =  8.06E-05,  avg # of iterations =  1.0

     total cpu time spent up to now is        0.2 secs

     total energy              =      -1.27196526 Ry
     Harris-Foulkes estimate   =      -1.27186862 Ry
     estimated scf accuracy    <       0.01201489 Ry

     iteration #  9     ecut=    20.00 Ry     beta= 0.70
     Davidson diagonalization with overlap
     ethr =  8.06E-05,  avg # of iterations =  1.0

     total cpu time spent up to now is        0.3 secs

     total energy              =      -1.27192084 Ry
     Harris-Foulkes estimate   =      -1.27198629 Ry
     estimated scf accuracy    <       0.01233924 Ry

     iteration # 10     ecut=    20.00 Ry     beta= 0.70
     Davidson diagonalization with overlap
     ethr =  8.06E-05,  avg # of iterations =  1.0

     total cpu time spent up to now is        0.3 secs

     total energy              =      -1.28194772 Ry
     Harris-Foulkes estimate   =      -1.27193565 Ry
     estimated scf accuracy    <       0.01223861 Ry

     iteration # 11     ecut=    20.00 Ry     beta= 0.70
     Davidson diagonalization with overlap
     ethr =  8.06E-05,  avg # of iterations =  4.0

     total cpu time spent up to now is        0.3 secs

     total energy              =      -1.25563623 Ry
     Harris-Foulkes estimate   =      -1.28432653 Ry
     estimated scf accuracy    <       0.05661768 Ry

     iteration # 12     ecut=    20.00 Ry     beta= 0.70
     Davidson diagonalization with overlap
     ethr =  8.06E-05,  avg # of iterations =  5.0

     total cpu time spent up to now is        0.3 secs

     total energy              =      -1.28640104 Ry
     Harris-Foulkes estimate   =      -1.28220826 Ry
     estimated scf accuracy    <       0.04225742 Ry

     iteration # 13     ecut=    20.00 Ry     beta= 0.70
     Davidson diagonalization with overlap
     ethr =  8.06E-05,  avg # of iterations =  1.0

     total cpu time spent up to now is        0.4 secs

     total energy              =      -1.28040772 Ry
     Harris-Foulkes estimate   =      -1.28653092 Ry
     estimated scf accuracy    <       0.05062732 Ry

     iteration # 14     ecut=    20.00 Ry     beta= 0.70
     Davidson diagonalization with overlap
     ethr =  8.06E-05,  avg # of iterations =  1.0

     total cpu time spent up to now is        0.4 secs

     total energy              =      -1.28106590 Ry
     Harris-Foulkes estimate   =      -1.28048502 Ry
     estimated scf accuracy    <       0.03899872 Ry

     iteration # 15     ecut=    20.00 Ry     beta= 0.70
     Davidson diagonalization with overlap
     ethr =  8.06E-05,  avg # of iterations =  1.0

     total cpu time spent up to now is        0.4 secs

     total energy              =      -1.26465512 Ry
     Harris-Foulkes estimate   =      -1.28112556 Ry
     estimated scf accuracy    <       0.04016643 Ry

     iteration # 16     ecut=    20.00 Ry     beta= 0.70
     Davidson diagonalization with overlap
     ethr =  8.06E-05,  avg # of iterations =  4.0

     total cpu time spent up to now is        0.4 secs

     total energy              =      -1.26834653 Ry
     Harris-Foulkes estimate   =      -1.26813216 Ry
     estimated scf accuracy    <       0.00134856 Ry

     iteration # 17     ecut=    20.00 Ry     beta= 0.70
     Davidson diagonalization with overlap
     ethr =  6.74E-05,  avg # of iterations =  1.0

     total cpu time spent up to now is        0.5 secs

     total energy              =      -1.26769437 Ry
     Harris-Foulkes estimate   =      -1.26836660 Ry
     estimated scf accuracy    <       0.00169883 Ry

     iteration # 18     ecut=    20.00 Ry     beta= 0.70
     Davidson diagonalization with overlap
     ethr =  6.74E-05,  avg # of iterations =  1.0

     total cpu time spent up to now is        0.5 secs

     total energy              =      -1.26776246 Ry
     Harris-Foulkes estimate   =      -1.26775150 Ry
     estimated scf accuracy    <       0.00033502 Ry

     iteration # 19     ecut=    20.00 Ry     beta= 0.70
     Davidson diagonalization with overlap
     ethr =  1.68E-05,  avg # of iterations =  3.0

     total cpu time spent up to now is        0.5 secs

     total energy              =      -1.26810882 Ry
     Harris-Foulkes estimate   =      -1.26807378 Ry
     estimated scf accuracy    <       0.00000094 Ry

     iteration # 20     ecut=    20.00 Ry     beta= 0.70
     Davidson diagonalization with overlap
     ethr =  4.71E-08,  avg # of iterations =  7.0

     total cpu time spent up to now is        0.6 secs

     total energy              =      -1.26809411 Ry
     Harris-Foulkes estimate   =      -1.26813923 Ry
     estimated scf accuracy    <       0.00021460 Ry

     iteration # 21     ecut=    20.00 Ry     beta= 0.70
     Davidson diagonalization with overlap
     ethr =  4.71E-08,  avg # of iterations =  5.0

     total cpu time spent up to now is        0.6 secs

     total energy              =      -1.26814575 Ry
     Harris-Foulkes estimate   =      -1.26809803 Ry
     estimated scf accuracy    <       0.00008157 Ry

     iteration # 22     ecut=    20.00 Ry     beta= 0.70
     Davidson diagonalization with overlap
     ethr =  4.71E-08,  avg # of iterations =  5.0

     total cpu time spent up to now is        0.6 secs

     total energy              =      -1.26807950 Ry
     Harris-Foulkes estimate   =      -1.26815256 Ry
     estimated scf accuracy    <       0.00025337 Ry

     iteration # 23     ecut=    20.00 Ry     beta= 0.70
     Davidson diagonalization with overlap
     ethr =  4.71E-08,  avg # of iterations =  5.0

     total cpu time spent up to now is        0.7 secs

     total energy              =      -1.26808439 Ry
     Harris-Foulkes estimate   =      -1.26808946 Ry
     estimated scf accuracy    <       0.00005480 Ry

     iteration # 24     ecut=    20.00 Ry     beta= 0.70
     Davidson diagonalization with overlap
     ethr =  4.71E-08,  avg # of iterations =  4.0

     total cpu time spent up to now is        0.7 secs

     total energy              =      -1.26807310 Ry
     Harris-Foulkes estimate   =      -1.26808503 Ry
     estimated scf accuracy    <       0.00003474 Ry

     iteration # 25     ecut=    20.00 Ry     beta= 0.70
     Davidson diagonalization with overlap
     ethr =  4.71E-08,  avg # of iterations =  4.0

     total cpu time spent up to now is        0.7 secs

     total energy              =      -1.26807494 Ry
     Harris-Foulkes estimate   =      -1.26807577 Ry
     estimated scf accuracy    <       0.00000233 Ry

     iteration # 26     ecut=    20.00 Ry     beta= 0.70
     Davidson diagonalization with overlap
     ethr =  4.71E-08,  avg # of iterations =  3.0

     total cpu time spent up to now is        0.7 secs

     total energy              =      -1.26807534 Ry
     Harris-Foulkes estimate   =      -1.26807524 Ry
     estimated scf accuracy    <       0.00000003 Ry

     iteration # 27     ecut=    20.00 Ry     beta= 0.70
     Davidson diagonalization with overlap
     ethr =  1.39E-09,  avg # of iterations =  5.0

     total cpu time spent up to now is        0.8 secs

     total energy              =      -1.26807522 Ry
     Harris-Foulkes estimate   =      -1.26807540 Ry
     estimated scf accuracy    <       0.00000045 Ry

     iteration # 28     ecut=    20.00 Ry     beta= 0.70
     Davidson diagonalization with overlap
     ethr =  1.39E-09,  avg # of iterations =  4.0

     total cpu time spent up to now is        0.8 secs

     total energy              =      -1.26807525 Ry
     Harris-Foulkes estimate   =      -1.26807526 Ry
     estimated scf accuracy    <       0.00000001 Ry

     iteration # 29     ecut=    20.00 Ry     beta= 0.70
     Davidson diagonalization with overlap
     ethr =  6.66E-10,  avg # of iterations =  1.0

     total cpu time spent up to now is        0.8 secs

     total energy              =      -1.26807525 Ry
     Harris-Foulkes estimate   =      -1.26807525 Ry
     estimated scf accuracy    <          3.7E-09 Ry

     iteration # 30     ecut=    20.00 Ry     beta= 0.70
     Davidson diagonalization with overlap
     ethr =  1.87E-10,  avg # of iterations =  4.0

     total cpu time spent up to now is        0.9 secs

     total energy              =      -1.26807526 Ry
     Harris-Foulkes estimate   =      -1.26807526 Ry
     estimated scf accuracy    <          4.4E-09 Ry

     iteration # 31     ecut=    20.00 Ry     beta= 0.70
     Davidson diagonalization with overlap
     ethr =  1.87E-10,  avg # of iterations =  1.0

     total cpu time spent up to now is        0.9 secs

     total energy              =      -1.26807526 Ry
     Harris-Foulkes estimate   =      -1.26807526 Ry
     estimated scf accuracy    <          1.4E-09 Ry

     iteration # 32     ecut=    20.00 Ry     beta= 0.70
     Davidson diagonalization with overlap
     ethr =  7.02E-11,  avg # of iterations =  4.0

     total cpu time spent up to now is        0.9 secs

     total energy              =      -1.26807526 Ry
     Harris-Foulkes estimate   =      -1.26807526 Ry
     estimated scf accuracy    <          7.8E-10 Ry

     iteration # 33     ecut=    20.00 Ry     beta= 0.70
     Davidson diagonalization with overlap
     ethr =  3.91E-11,  avg # of iterations =  1.0

     total cpu time spent up to now is        0.9 secs

     total energy              =      -1.26807526 Ry
     Harris-Foulkes estimate   =      -1.26807526 Ry
     estimated scf accuracy    <          1.8E-10 Ry

     iteration # 34     ecut=    20.00 Ry     beta= 0.70
     Davidson diagonalization with overlap
     ethr =  8.92E-12,  avg # of iterations =  1.0

     total cpu time spent up to now is        1.0 secs

     total energy              =      -1.26807526 Ry
     Harris-Foulkes estimate   =      -1.26807526 Ry
     estimated scf accuracy    <          4.1E-10 Ry

     iteration # 35     ecut=    20.00 Ry     beta= 0.70
     Davidson diagonalization with overlap
     ethr =  8.92E-12,  avg # of iterations =  4.0

     total cpu time spent up to now is        1.0 secs

     total energy              =      -1.26807526 Ry
     Harris-Foulkes estimate   =      -1.26807526 Ry
     estimated scf accuracy    <          2.0E-10 Ry

     iteration # 36     ecut=    20.00 Ry     beta= 0.70
     Davidson diagonalization with overlap
     ethr =  8.92E-12,  avg # of iterations =  5.0

     total cpu time spent up to now is        1.0 secs

     total energy              =      -1.26807526 Ry
     Harris-Foulkes estimate   =      -1.26807526 Ry
     estimated scf accuracy    <          3.6E-09 Ry

     iteration # 37     ecut=    20.00 Ry     beta= 0.70
     Davidson diagonalization with overlap
     ethr =  8.92E-12,  avg # of iterations =  4.0

     total cpu time spent up to now is        1.1 secs

     total energy              =      -1.26807526 Ry
     Harris-Foulkes estimate   =      -1.26807526 Ry
     estimated scf accuracy    <          2.1E-10 Ry

     iteration # 38     ecut=    20.00 Ry     beta= 0.70
     Davidson diagonalization with overlap
     ethr =  8.92E-12,  avg # of iterations =  5.0

     total cpu time spent up to now is        1.1 secs

     total energy              =      -1.26807526 Ry
     Harris-Foulkes estimate   =      -1.26807526 Ry
     estimated scf accuracy    <          2.5E-09 Ry

     iteration # 39     ecut=    20.00 Ry     beta= 0.70
     Davidson diagonalization with overlap
     ethr =  8.92E-12,  avg # of iterations =  4.0

     total cpu time spent up to now is        1.1 secs

     total energy              =      -1.26807526 Ry
     Harris-Foulkes estimate   =      -1.26807526 Ry
     estimated scf accuracy    <          1.2E-10 Ry

     iteration # 40     ecut=    20.00 Ry     beta= 0.70
     Davidson diagonalization with overlap
     ethr =  6.22E-12,  avg # of iterations =  1.0

     total cpu time spent up to now is        1.1 secs

     End of self-consistent calculation

          k = 0.0000 0.0000 0.0000 ( 10131 PWs)   bands (ev):

    -3.1779

     highest occupied level (ev):    -3.1779

!    total energy              =      -1.26807526 Ry
     Harris-Foulkes estimate   =      -1.26807526 Ry
     estimated scf accuracy    <          2.5E-11 Ry

     The total energy is the sum of the following terms:

     one-electron contribution =      -0.35294499 Ry
     hartree contribution      =       0.27194056 Ry
     xc contribution           =      -0.95318336 Ry
     ewald contribution        =      -0.23388746 Ry

     convergence has been achieved in  40 iterations

     Forces acting on atoms (cartesian axes, Ry/au):

     atom    1 type  1   force =    -0.00003099   -0.00000000   -0.00000000
     atom    2 type  1   force =     0.00003099    0.00000000    0.00000000

     Total force =     0.000044     Total SCF correction =     0.000000

     Writing output data file na2.save/
 
     init_run     :      0.03s CPU      0.04s WALL (       1 calls)
     electrons    :      1.06s CPU      1.08s WALL (       1 calls)
     forces       :      0.00s CPU      0.01s WALL (       1 calls)

     Called by init_run:
     wfcinit      :      0.00s CPU      0.01s WALL (       1 calls)
     potinit      :      0.00s CPU      0.01s WALL (       1 calls)
     hinit0       :      0.00s CPU      0.01s WALL (       1 calls)

     Called by electrons:
     c_bands      :      0.21s CPU      0.22s WALL (      41 calls)
     sum_band     :      0.12s CPU      0.13s WALL (      41 calls)
     v_of_rho     :      0.14s CPU      0.15s WALL (      41 calls)
     mix_rho      :      0.51s CPU      0.52s WALL (      41 calls)

     Called by c_bands:
     init_us_2    :      0.00s CPU      0.01s WALL (      83 calls)
     cegterg      :      0.20s CPU      0.21s WALL (      41 calls)

     Called by sum_band:

     Called by *egterg:
     h_psi        :      0.18s CPU      0.19s WALL (     161 calls)
     g_psi        :      0.00s CPU      0.00s WALL (     119 calls)
     cdiaghg      :      0.01s CPU      0.01s WALL (     159 calls)

     Called by h_psi:
     h_psi:pot    :      0.17s CPU      0.18s WALL (     161 calls)
     h_psi:calbec :      0.00s CPU      0.01s WALL (     161 calls)
     vloc_psi     :      0.16s CPU      0.18s WALL (     161 calls)
     add_vuspsi   :      0.00s CPU      0.00s WALL (     161 calls)

     General routines
     calbec       :      0.00s CPU      0.01s WALL (     165 calls)
     fft          :      0.08s CPU      0.12s WALL (     127 calls)
     ffts         :      0.03s CPU      0.03s WALL (      41 calls)
     fftw         :      0.13s CPU      0.16s WALL (     365 calls)
 
     Parallel routines
     fft_scatt_xy :      0.06s CPU      0.05s WALL (     533 calls)
     fft_scatt_yz :      0.06s CPU      0.09s WALL (     533 calls)
 
     PWSCF        :      1.12s CPU      1.14s WALL

 
   This run was terminated on:  15:39:49  18Feb2019            

=------------------------------------------------------------------------------=
   JOB DONE.
=------------------------------------------------------------------------------=
