
     Program PWSCF v.7.2 starts on 22Jun2023 at 14: 6:37 

     This program is part of the open-source Quantum ESPRESSO suite
     for quantum simulation of materials; please cite
         "P. Giannozzi et al., J. Phys.:Condens. Matter 21 395502 (2009);
         "P. Giannozzi et al., J. Phys.:Condens. Matter 29 465901 (2017);
         "P. Giannozzi et al., J. Chem. Phys. 152 154105 (2020);
          URL http://www.quantum-espresso.org", 
     in publications or presentations arising from this work. More details at
     http://www.quantum-espresso.org/quote

     Parallel version (MPI), running on     8 processors

     MPI processes distributed on     1 nodes
     17826 MiB available memory on the printing compute node when the environment starts
 
     Waiting for input...
     Reading input from standard input

     Current dimensions of program PWSCF are:
     Max number of different atomic species (ntypx) = 10
     Max number of k-points (npk) =  40000
     Max angular momentum in pseudopotentials (lmaxx) =  4
     file H.pz-vbc.UPF: wavefunction(s)  1S renormalized
 
     R & G space division:  proc/nbgrp/npool/nimage =       8
     Subspace diagonalization in iterative solution of the eigenvalue problem:
     a serial algorithm will be used

 
     Parallelization info
     --------------------
     sticks:   dense  smooth     PW     G-vecs:    dense   smooth      PW
     Min         475     475    118                17679    17679    2206
     Max         476     476    119                17682    17682    2209
     Sum        3801    3801    949               141439   141439   17663
 
     Using Slab Decomposition
 


     bravais-lattice index     =            8
     lattice parameter (alat)  =      24.4531  a.u.
     unit-cell volume          =   11697.4160 (a.u.)^3
     number of atoms/cell      =           12
     number of atomic types    =            2
     number of electrons       =        30.00
     number of Kohn-Sham states=           15
     kinetic-energy cutoff     =      20.0000  Ry
     charge density cutoff     =      80.0000  Ry
     scf convergence threshold =      1.0E-10
     mixing beta               =       0.7000
     number of iterations used =            8  plain     mixing
     Exchange-correlation=  SLA  PZ   NOGX NOGC
                           (   1   1   0   0   0   0   0)

     celldm(1)=  24.453066  celldm(2)=   1.000000  celldm(3)=   0.800000
     celldm(4)=   0.000000  celldm(5)=   0.000000  celldm(6)=   0.000000

     crystal axes: (cart. coord. in units of alat)
               a(1) = (   1.000000   0.000000   0.000000 )  
               a(2) = (   0.000000   1.000000   0.000000 )  
               a(3) = (   0.000000   0.000000   0.800000 )  

     reciprocal axes: (cart. coord. in units 2 pi/alat)
               b(1) = (  1.000000  0.000000  0.000000 )  
               b(2) = (  0.000000  1.000000  0.000000 )  
               b(3) = (  0.000000  0.000000  1.250000 )  


     PseudoPot. # 1 for C  read from file:
     ./pseudo/C.pz-vbc.UPF
     MD5 check sum: ab53dd623bfeb79c5a7b057bc96eae20
     Pseudo is Norm-conserving, Zval =  4.0
     Generated by new atomic code, or converted to UPF format
     Using radial grid of  269 points,  1 beta functions with: 
                l(1) =   0

     PseudoPot. # 2 for H  read from file:
     ./pseudo/H.pz-vbc.UPF
     MD5 check sum: 90becb985b714f09656c73597998d266
     Pseudo is Norm-conserving, Zval =  1.0
     Generated by new atomic code, or converted to UPF format
     Using radial grid of  131 points,  0 beta functions with: 

     atomic species   valence    mass     pseudopotential
        C              4.00    12.00000     C ( 1.00)
        H              1.00     1.00000     H ( 1.00)

     No symmetry found



   Cartesian axes

     site n.     atom                  positions (alat units)
         1           H   tau(   1) = (   0.3075733   0.3863986   0.2704790  )
         2           C   tau(   2) = (   0.3925810   0.3863986   0.2704790  )
         3           C   tau(   3) = (   0.4462904   0.4794260   0.2704790  )
         4           H   tau(   4) = (   0.4037865   0.5530449   0.2704790  )
         5           C   tau(   5) = (   0.4462904   0.2933712   0.2704790  )
         6           H   tau(   6) = (   0.4037865   0.2197524   0.2704790  )
         7           C   tau(   7) = (   0.5537092   0.4794260   0.2704790  )
         8           H   tau(   8) = (   0.5962131   0.5530449   0.2704790  )
         9           C   tau(   9) = (   0.5537092   0.2933712   0.2704790  )
        10           H   tau(  10) = (   0.5962131   0.2197524   0.2704790  )
        11           C   tau(  11) = (   0.6074186   0.3863986   0.2704790  )
        12           H   tau(  12) = (   0.6924263   0.3863986   0.2704790  )

     number of k points=     1
                       cart. coord. in units 2pi/alat
        k(    1) = (   0.0000000   0.0000000   0.0000000), wk =   2.0000000

     Dense  grid:   141439 G-vectors     FFT dimensions: (  72,  72,  60)

     Estimated max dynamical RAM per process >      13.52 MB

     Estimated total dynamical RAM >     108.19 MB

     Initial potential from superposition of free atoms

     starting charge      29.9997, renormalised to      30.0000

     negative rho (up, down):  8.664E-02 0.000E+00
     Starting wfcs are   30 randomized atomic wfcs

     total cpu time spent up to now is        0.1 secs

     Self-consistent Calculation

     iteration #  1     ecut=    20.00 Ry     beta= 0.70
     Davidson diagonalization with overlap
     ethr =  1.00E-02,  avg # of iterations =  2.0

     negative rho (up, down):  2.412E-02 0.000E+00

     total cpu time spent up to now is        0.2 secs

     total energy              =     -72.87021407 Ry
     estimated scf accuracy    <       0.98855732 Ry

     iteration #  2     ecut=    20.00 Ry     beta= 0.70
     Davidson diagonalization with overlap
     ethr =  3.30E-03,  avg # of iterations =  2.0

     negative rho (up, down):  1.010E-02 0.000E+00

     total cpu time spent up to now is        0.2 secs

     total energy              =     -73.03739832 Ry
     estimated scf accuracy    <       0.19512255 Ry

     iteration #  3     ecut=    20.00 Ry     beta= 0.70
     Davidson diagonalization with overlap
     ethr =  6.50E-04,  avg # of iterations =  2.0

     negative rho (up, down):  8.907E-04 0.000E+00

     total cpu time spent up to now is        0.3 secs

     total energy              =     -73.07897194 Ry
     estimated scf accuracy    <       0.01113710 Ry

     iteration #  4     ecut=    20.00 Ry     beta= 0.70
     Davidson diagonalization with overlap
     ethr =  3.71E-05,  avg # of iterations =  2.0

     negative rho (up, down):  2.693E-05 0.000E+00

     total cpu time spent up to now is        0.3 secs

     total energy              =     -73.08052525 Ry
     estimated scf accuracy    <       0.00011555 Ry

     iteration #  5     ecut=    20.00 Ry     beta= 0.70
     Davidson diagonalization with overlap
     ethr =  3.85E-07,  avg # of iterations =  3.0

     total cpu time spent up to now is        0.3 secs

     total energy              =     -73.08056426 Ry
     estimated scf accuracy    <       0.00001527 Ry

     iteration #  6     ecut=    20.00 Ry     beta= 0.70
     Davidson diagonalization with overlap
     ethr =  5.09E-08,  avg # of iterations =  2.0

     total cpu time spent up to now is        0.4 secs

     total energy              =     -73.08056714 Ry
     estimated scf accuracy    <       0.00000009 Ry

     iteration #  7     ecut=    20.00 Ry     beta= 0.70
     Davidson diagonalization with overlap
     ethr =  2.92E-10,  avg # of iterations =  3.0

     total cpu time spent up to now is        0.4 secs

     total energy              =     -73.08056718 Ry
     estimated scf accuracy    <       0.00000002 Ry

     iteration #  8     ecut=    20.00 Ry     beta= 0.70
     Davidson diagonalization with overlap
     ethr =  5.02E-11,  avg # of iterations =  4.0

     total cpu time spent up to now is        0.5 secs

     total energy              =     -73.08056718 Ry
     estimated scf accuracy    <          2.9E-10 Ry

     iteration #  9     ecut=    20.00 Ry     beta= 0.70
     Davidson diagonalization with overlap
     ethr =  9.63E-13,  avg # of iterations =  5.0

     total cpu time spent up to now is        0.5 secs

     total energy              =     -73.08056718 Ry
     estimated scf accuracy    <          1.6E-10 Ry

     iteration # 10     ecut=    20.00 Ry     beta= 0.70
     Davidson diagonalization with overlap
     ethr =  5.44E-13,  avg # of iterations =  2.0

     total cpu time spent up to now is        0.6 secs

     End of self-consistent calculation

          k = 0.0000 0.0000 0.0000 ( 17663 PWs)   bands (ev):

   -21.4017 -18.4384 -18.4378 -14.6471 -14.6390 -12.6737 -10.7375 -10.6200
    -9.7983  -9.7957  -9.0147  -7.6567  -7.6477  -6.1135  -6.1102

     highest occupied level (ev):    -6.1102

!    total energy              =     -73.08056718 Ry
     estimated scf accuracy    <          8.0E-12 Ry

     The total energy is the sum of the following terms:
     one-electron contribution =    -298.92118343 Ry
     hartree contribution      =     152.28937996 Ry
     xc contribution           =     -24.31802314 Ry
     ewald contribution        =      97.86925942 Ry

     convergence has been achieved in  10 iterations

     Forces acting on atoms (cartesian axes, Ry/au):

     atom    1 type  2   force =    -0.06503469   -0.00001381    0.00001232
     atom    2 type  1   force =    -0.09122749    0.00009248   -0.00001273
     atom    3 type  1   force =    -0.04679457    0.07836436   -0.00001101
     atom    4 type  2   force =    -0.03228322    0.05604890    0.00001281
     atom    5 type  1   force =    -0.04680762   -0.07842156   -0.00001470
     atom    6 type  2   force =    -0.03228218   -0.05607037    0.00001321
     atom    7 type  1   force =     0.04679486    0.07836414   -0.00001096
     atom    8 type  2   force =     0.03228306    0.05604890    0.00001282
     atom    9 type  1   force =     0.04680777   -0.07842132   -0.00001466
     atom   10 type  2   force =     0.03228204   -0.05607041    0.00001321
     atom   11 type  1   force =     0.09122743    0.00009251   -0.00001264
     atom   12 type  2   force =     0.06503460   -0.00001381    0.00001232
     The non-local contrib.  to forces
     atom    1 type  2   force =     0.00000000    0.00000000    0.00000000
     atom    2 type  1   force =    -0.18300153    0.00019579   -0.00004758
     atom    3 type  1   force =    -0.09188249    0.15843396   -0.00003997
     atom    4 type  2   force =     0.00000000    0.00000000    0.00000000
     atom    5 type  1   force =    -0.09193455   -0.15849355   -0.00005660
     atom    6 type  2   force =     0.00000000    0.00000000    0.00000000
     atom    7 type  1   force =     0.09188268    0.15843413   -0.00004009
     atom    8 type  2   force =     0.00000000    0.00000000    0.00000000
     atom    9 type  1   force =     0.09193447   -0.15849389   -0.00005671
     atom   10 type  2   force =     0.00000000    0.00000000    0.00000000
     atom   11 type  1   force =     0.18300199    0.00019567   -0.00004749
     atom   12 type  2   force =     0.00000000    0.00000000    0.00000000
     The ionic contribution  to forces
     atom    1 type  2   force =    -3.24143321   -0.00000000   -0.00000000
     atom    2 type  1   force =    -6.97207086   -0.00000000   -0.00000000
     atom    3 type  1   force =    -3.49259937    6.04187470   -0.00000000
     atom    4 type  2   force =    -1.63025180    2.81276933   -0.00000000
     atom    5 type  1   force =    -3.49259937   -6.04187470   -0.00000000
     atom    6 type  2   force =    -1.63025180   -2.81276933   -0.00000000
     atom    7 type  1   force =     3.49259937    6.04187470   -0.00000000
     atom    8 type  2   force =     1.63025180    2.81276933   -0.00000000
     atom    9 type  1   force =     3.49259937   -6.04187470   -0.00000000
     atom   10 type  2   force =     1.63025180   -2.81276933   -0.00000000
     atom   11 type  1   force =     6.97207086   -0.00000000   -0.00000000
     atom   12 type  2   force =     3.24143321   -0.00000000   -0.00000000
     The local contribution  to forces
     atom    1 type  2   force =     3.17639825   -0.00000039    0.00000006
     atom    2 type  1   force =     7.06384316   -0.00008989    0.00002265
     atom    3 type  1   force =     3.53768668   -6.12192954    0.00001678
     atom    4 type  2   force =     1.59796847   -2.75670661    0.00000054
     atom    5 type  1   force =     3.53772483    6.12195934    0.00002979
     atom    6 type  2   force =     1.59796936    2.75671206    0.00000096
     atom    7 type  1   force =    -3.53768646   -6.12192979    0.00001715
     atom    8 type  2   force =    -1.59796848   -2.75670659    0.00000058
     atom    9 type  1   force =    -3.53772458    6.12195981    0.00003000
     atom   10 type  2   force =    -1.59796935    2.75671198    0.00000095
     atom   11 type  1   force =    -7.06384355   -0.00008968    0.00002281
     atom   12 type  2   force =    -3.17639810   -0.00000039    0.00000007
     The core correction contribution to forces
     atom    1 type  2   force =     0.00000000    0.00000000    0.00000000
     atom    2 type  1   force =     0.00000000    0.00000000    0.00000000
     atom    3 type  1   force =     0.00000000    0.00000000    0.00000000
     atom    4 type  2   force =     0.00000000    0.00000000    0.00000000
     atom    5 type  1   force =     0.00000000    0.00000000    0.00000000
     atom    6 type  2   force =     0.00000000    0.00000000    0.00000000
     atom    7 type  1   force =     0.00000000    0.00000000    0.00000000
     atom    8 type  2   force =     0.00000000    0.00000000    0.00000000
     atom    9 type  1   force =     0.00000000    0.00000000    0.00000000
     atom   10 type  2   force =     0.00000000    0.00000000    0.00000000
     atom   11 type  1   force =     0.00000000    0.00000000    0.00000000
     atom   12 type  2   force =     0.00000000    0.00000000    0.00000000
     The Hubbard contrib.    to forces
     atom    1 type  2   force =     0.00000000    0.00000000    0.00000000
     atom    2 type  1   force =     0.00000000    0.00000000    0.00000000
     atom    3 type  1   force =     0.00000000    0.00000000    0.00000000
     atom    4 type  2   force =     0.00000000    0.00000000    0.00000000
     atom    5 type  1   force =     0.00000000    0.00000000    0.00000000
     atom    6 type  2   force =     0.00000000    0.00000000    0.00000000
     atom    7 type  1   force =     0.00000000    0.00000000    0.00000000
     atom    8 type  2   force =     0.00000000    0.00000000    0.00000000
     atom    9 type  1   force =     0.00000000    0.00000000    0.00000000
     atom   10 type  2   force =     0.00000000    0.00000000    0.00000000
     atom   11 type  1   force =     0.00000000    0.00000000    0.00000000
     atom   12 type  2   force =     0.00000000    0.00000000    0.00000000
     The SCF correction term to forces
     atom    1 type  2   force =     0.00000034    0.00000003   -0.00000001
     atom    2 type  1   force =     0.00000181    0.00000003   -0.00000007
     atom    3 type  1   force =     0.00000069   -0.00000131   -0.00000009
     atom    4 type  2   force =     0.00000018   -0.00000037   -0.00000000
     atom    5 type  1   force =     0.00000153    0.00000079   -0.00000017
     atom    6 type  2   force =     0.00000033    0.00000035   -0.00000002
     atom    7 type  1   force =    -0.00000066   -0.00000144   -0.00000029
     atom    8 type  2   force =    -0.00000018   -0.00000039   -0.00000003
     atom    9 type  1   force =    -0.00000142    0.00000090   -0.00000023
     atom   10 type  2   force =    -0.00000034    0.00000039   -0.00000001
     atom   11 type  1   force =    -0.00000180   -0.00000003   -0.00000024
     atom   12 type  2   force =    -0.00000044    0.00000003   -0.00000002

     Total force =     0.274202     Total SCF correction =     0.000004

     Writing all to output data dir ./scratch/c6h6.save/
 
     init_run     :      0.06s CPU      0.08s WALL (       1 calls)
     electrons    :      0.42s CPU      0.45s WALL (       1 calls)
     forces       :      0.01s CPU      0.01s WALL (       1 calls)

     Called by init_run:
     wfcinit      :      0.03s CPU      0.03s WALL (       1 calls)
     potinit      :      0.01s CPU      0.01s WALL (       1 calls)
     hinit0       :      0.01s CPU      0.01s WALL (       1 calls)

     Called by electrons:
     c_bands      :      0.31s CPU      0.32s WALL (      10 calls)
     sum_band     :      0.05s CPU      0.06s WALL (      10 calls)
     v_of_rho     :      0.02s CPU      0.02s WALL (      11 calls)
     mix_rho      :      0.03s CPU      0.04s WALL (      10 calls)

     Called by c_bands:
     init_us_2    :      0.00s CPU      0.00s WALL (      21 calls)
     init_us_2:cp :      0.00s CPU      0.00s WALL (      21 calls)
     cegterg      :      0.31s CPU      0.32s WALL (      10 calls)

     Called by *egterg:
     cdiaghg      :      0.01s CPU      0.01s WALL (      37 calls)
     h_psi        :      0.29s CPU      0.30s WALL (      38 calls)
     g_psi        :      0.00s CPU      0.00s WALL (      27 calls)

     Called by h_psi:
     h_psi:calbec :      0.00s CPU      0.00s WALL (      38 calls)
     vloc_psi     :      0.28s CPU      0.30s WALL (      38 calls)
     add_vuspsi   :      0.00s CPU      0.00s WALL (      38 calls)

     General routines
     calbec       :      0.00s CPU      0.01s WALL (      42 calls)
     fft          :      0.02s CPU      0.02s WALL (      34 calls)
     ffts         :      0.00s CPU      0.00s WALL (      10 calls)
     fftw         :      0.30s CPU      0.32s WALL (    1094 calls)
 
     Parallel routines
 
     PWSCF        :      0.50s CPU      0.60s WALL

 
   This run was terminated on:  14: 6:38  22Jun2023            

=------------------------------------------------------------------------------=
   JOB DONE.
=------------------------------------------------------------------------------=
