
     Program PWSCF v.6.3 starts on 17Feb2019 at 17:31:23 

     This program is part of the open-source Quantum ESPRESSO suite
     for quantum simulation of materials; please cite
         "P. Giannozzi et al., J. Phys.:Condens. Matter 21 395502 (2009);
         "P. Giannozzi et al., J. Phys.:Condens. Matter 29 465901 (2017);
          URL http://www.quantum-espresso.org", 
     in publications or presentations arising from this work. More details at
     http://www.quantum-espresso.org/quote

     Parallel version (MPI), running on     4 processors

     MPI processes distributed on     1 nodes
     R & G space division:  proc/nbgrp/npool/nimage =       4
     Waiting for input...
     Reading input from standard input
Warning: card &IONS ignored
Warning: card     ION_DYNAMICS = 'NONE' ignored
Warning: card / ignored

     Current dimensions of program PWSCF are:
     Max number of different atomic species (ntypx) = 10
     Max number of k-points (npk) =  40000
     Max angular momentum in pseudopotentials (lmaxx) =  3

     Subspace diagonalization in iterative solution of the eigenvalue problem:
     a serial algorithm will be used

 
     Parallelization info
     --------------------
     sticks:   dense  smooth     PW     G-vecs:    dense   smooth      PW
     Min        1704    1704    425               105924   105924   13229
     Max        1705    1705    426               105927   105927   13232
     Sum        6817    6817   1701               423701   423701   52923
 


     bravais-lattice index     =            1
     lattice parameter (alat)  =      18.8973  a.u.
     unit-cell volume          =    6748.3330 (a.u.)^3
     number of atoms/cell      =            2
     number of atomic types    =            1
     number of electrons       =         2.00
     number of Kohn-Sham states=            1
     kinetic-energy cutoff     =      60.0000  Ry
     charge density cutoff     =     240.0000  Ry
     convergence threshold     =      1.0E-12
     mixing beta               =       0.7000
     number of iterations used =            8  plain     mixing
     Exchange-correlation      =  SLA  PW   PBX  PBC ( 1  4  3  4 0 0)

     celldm(1)=  18.897260  celldm(2)=   0.000000  celldm(3)=   0.000000
     celldm(4)=   0.000000  celldm(5)=   0.000000  celldm(6)=   0.000000

     crystal axes: (cart. coord. in units of alat)
               a(1) = (   1.000000   0.000000   0.000000 )  
               a(2) = (   0.000000   1.000000   0.000000 )  
               a(3) = (   0.000000   0.000000   1.000000 )  

     reciprocal axes: (cart. coord. in units 2 pi/alat)
               b(1) = (  1.000000  0.000000  0.000000 )  
               b(2) = (  0.000000  1.000000  0.000000 )  
               b(3) = (  0.000000  0.000000  1.000000 )  


     PseudoPot. # 1 for H  read from file:
     ./pseudo/H.pbe-tm.UPF
     MD5 check sum: 9d91e7ab88dc9682373de75aeb21be30
     Pseudo is Norm-conserving, Zval =  1.0
     Generated by new atomic code, or converted to UPF format
     Using radial grid of  929 points,  0 beta functions with: 

     atomic species   valence    mass     pseudopotential
        H              1.00     1.00794     H ( 1.00)

     No symmetry found



   Cartesian axes

     site n.     atom                  positions (alat units)
         1           H   tau(   1) = (   0.4630000   0.5000000   0.5000000  )
         2           H   tau(   2) = (   0.5370000   0.5000000   0.5000000  )

     number of k points=     1
                       cart. coord. in units 2pi/alat
        k(    1) = (   0.0000000   0.0000000   0.0000000), wk =   2.0000000

     Dense  grid:   423701 G-vectors     FFT dimensions: (  96,  96,  96)

     Estimated max dynamical RAM per process >      60.24 MB

     Estimated total dynamical RAM >     240.97 MB

     Initial potential from superposition of free atoms

     starting charge    0.20000, renormalised to    2.00000

     negative rho (up, down):  7.125E-05 0.000E+00
     Starting wfcs are    2 randomized atomic wfcs

     total cpu time spent up to now is        1.0 secs

     Self-consistent Calculation

     iteration #  1     ecut=    60.00 Ry     beta= 0.70
     CG style diagonalization
     ethr =  1.00E-02,  avg # of iterations =  3.0

     negative rho (up, down):  1.411E-05 0.000E+00

     total cpu time spent up to now is        1.4 secs

     total energy              =      -2.33117032 Ry
     Harris-Foulkes estimate   =      -2.33831521 Ry
     estimated scf accuracy    <       0.02100263 Ry

     iteration #  2     ecut=    60.00 Ry     beta= 0.70
     CG style diagonalization
     ethr =  1.05E-03,  avg # of iterations =  3.0

     negative rho (up, down):  8.192E-07 0.000E+00

     total cpu time spent up to now is        1.7 secs

     total energy              =      -2.33213209 Ry
     Harris-Foulkes estimate   =      -2.33222662 Ry
     estimated scf accuracy    <       0.00060955 Ry

     iteration #  3     ecut=    60.00 Ry     beta= 0.70
     CG style diagonalization
     ethr =  3.05E-05,  avg # of iterations =  4.0

     negative rho (up, down):  1.383E-06 0.000E+00

     total cpu time spent up to now is        2.1 secs

     total energy              =      -2.33226224 Ry
     Harris-Foulkes estimate   =      -2.33226810 Ry
     estimated scf accuracy    <       0.00003333 Ry

     iteration #  4     ecut=    60.00 Ry     beta= 0.70
     CG style diagonalization
     ethr =  1.67E-06,  avg # of iterations =  4.0

     total cpu time spent up to now is        2.4 secs

     total energy              =      -2.33226036 Ry
     Harris-Foulkes estimate   =      -2.33226973 Ry
     estimated scf accuracy    <       0.00001688 Ry

     iteration #  5     ecut=    60.00 Ry     beta= 0.70
     CG style diagonalization
     ethr =  8.44E-07,  avg # of iterations =  4.0

     total cpu time spent up to now is        2.8 secs

     total energy              =      -2.33226247 Ry
     Harris-Foulkes estimate   =      -2.33226247 Ry
     estimated scf accuracy    <       0.00000005 Ry

     iteration #  6     ecut=    60.00 Ry     beta= 0.70
     CG style diagonalization
     ethr =  2.58E-09,  avg # of iterations =  4.0

     total cpu time spent up to now is        3.1 secs

     total energy              =      -2.33226248 Ry
     Harris-Foulkes estimate   =      -2.33226248 Ry
     estimated scf accuracy    <          6.2E-10 Ry

     iteration #  7     ecut=    60.00 Ry     beta= 0.70
     CG style diagonalization
     ethr =  3.09E-11,  avg # of iterations =  4.0

     total cpu time spent up to now is        3.5 secs

     total energy              =      -2.33226248 Ry
     Harris-Foulkes estimate   =      -2.33226248 Ry
     estimated scf accuracy    <          2.4E-11 Ry

     iteration #  8     ecut=    60.00 Ry     beta= 0.70
     CG style diagonalization
     ethr =  1.18E-12,  avg # of iterations =  4.0

     total cpu time spent up to now is        3.8 secs

     End of self-consistent calculation

          k = 0.0000 0.0000 0.0000 ( 52923 PWs)   bands (ev):

   -10.3452

     highest occupied level (ev):   -10.3452

!    total energy              =      -2.33226248 Ry
     Harris-Foulkes estimate   =      -2.33226248 Ry
     estimated scf accuracy    <          7.3E-14 Ry

     The total energy is the sum of the following terms:

     one-electron contribution =      -3.81779328 Ry
     hartree contribution      =       2.03447174 Ry
     xc contribution           =      -1.37979999 Ry
     ewald contribution        =       0.83085905 Ry

     convergence has been achieved in   8 iterations

     Forces acting on atoms (cartesian axes, Ry/au):

     atom    1 type  1   force =    -0.00808934   -0.00000000    0.00000000
     atom    2 type  1   force =     0.00808934    0.00000000   -0.00000000

     Total force =     0.011440     Total SCF correction =     0.000000

     Writing output data file h2.save/
 
     init_run     :      0.34s CPU      0.79s WALL (       1 calls)
     electrons    :      2.74s CPU      2.81s WALL (       1 calls)
     forces       :      0.06s CPU      0.06s WALL (       1 calls)

     Called by init_run:
     wfcinit      :      0.03s CPU      0.29s WALL (       1 calls)
     potinit      :      0.19s CPU      0.22s WALL (       1 calls)
     hinit0       :      0.03s CPU      0.19s WALL (       1 calls)

     Called by electrons:
     c_bands      :      0.44s CPU      0.43s WALL (       8 calls)
     sum_band     :      0.36s CPU      0.37s WALL (       8 calls)
     v_of_rho     :      1.62s CPU      1.66s WALL (       9 calls)
     mix_rho      :      0.44s CPU      0.46s WALL (       8 calls)

     Called by c_bands:
     ccgdiagg     :      0.33s CPU      0.33s WALL (       8 calls)
     wfcrot       :      0.13s CPU      0.39s WALL (       8 calls)

     Called by sum_band:

     Called by *cgdiagg:
     h_psi        :      0.44s CPU      0.44s WALL (      31 calls)
     cdiaghg      :      0.00s CPU      0.19s WALL (       8 calls)

     Called by h_psi:
     h_psi:pot    :      0.44s CPU      0.44s WALL (      31 calls)
     vloc_psi     :      0.44s CPU      0.44s WALL (      31 calls)
     hs_1psi      :      0.32s CPU      0.32s WALL (      23 calls)
     s_1psi       :      0.00s CPU      0.00s WALL (      23 calls)

     General routines
     fft          :      1.33s CPU      1.53s WALL (      91 calls)
     ffts         :      0.11s CPU      0.11s WALL (       8 calls)
     fftw         :      0.41s CPU      0.39s WALL (      72 calls)
 
     Parallel routines
     fft_scatt_xy :      0.27s CPU      0.31s WALL (     171 calls)
     fft_scatt_yz :      0.65s CPU      0.69s WALL (     171 calls)
 
     PWSCF        :      3.16s CPU      3.92s WALL

 
   This run was terminated on:  17:31:27  17Feb2019            

=------------------------------------------------------------------------------=
   JOB DONE.
=------------------------------------------------------------------------------=
