    2
# Step:     0     Total energy:       -2.33226228     Ry
H        4.629999999   5.000000000   5.000000000   0.000000000   0.000000000   0.000000000
H        5.370000001   5.000000000   5.000000000   0.000000000   0.000000000   0.000000000
    2
# Step:     1     Total energy:       -2.33226228     Ry
H        4.629999996   5.000000000   5.000000000  -0.000000010   0.000000000   0.000000000
H        5.370000004   5.000000000   5.000000000   0.000000010   0.000000000   0.000000000
    2
# Step:     2     Total energy:       -2.33226228     Ry
H        4.629999991   5.000000000   5.000000000  -0.000000019   0.000000000   0.000000000
H        5.370000009   5.000000000   5.000000000   0.000000019   0.000000000   0.000000000
    2
# Step:     3     Total energy:       -2.33226228     Ry
H        4.629999984   5.000000000   5.000000000  -0.000000029   0.000000000   0.000000000
H        5.370000016   5.000000000   5.000000000   0.000000029   0.000000000   0.000000000
    2
# Step:     4     Total energy:       -2.33226228     Ry
H        4.629999975   5.000000000   5.000000000  -0.000000039   0.000000000   0.000000000
H        5.370000025   5.000000000   5.000000000   0.000000039   0.000000000   0.000000000
    2
# Step:     5     Total energy:       -2.33226228     Ry
H        4.629999964   5.000000000   5.000000000  -0.000000048   0.000000000   0.000000000
H        5.370000036   5.000000000   5.000000000   0.000000048   0.000000000   0.000000000
    2
# Step:     6     Total energy:       -2.33226228     Ry
H        4.629999951   5.000000000   5.000000000  -0.000000058   0.000000000   0.000000000
H        5.370000049   5.000000000   5.000000000   0.000000058   0.000000000   0.000000000
    2
# Step:     7     Total energy:       -2.33226228     Ry
H        4.629999936   5.000000000   5.000000000  -0.000000067   0.000000000   0.000000000
H        5.370000064   5.000000000   5.000000000   0.000000067   0.000000000   0.000000000
    2
# Step:     8     Total energy:       -2.33226227     Ry
H        4.629999919   5.000000000   5.000000000  -0.000000077   0.000000000   0.000000000
H        5.370000081   5.000000000   5.000000000   0.000000077   0.000000000   0.000000000
    2
# Step:     9     Total energy:       -2.33226227     Ry
H        4.629999900   5.000000000   5.000000000  -0.000000087   0.000000000   0.000000000
H        5.370000100   5.000000000   5.000000000   0.000000087   0.000000000   0.000000000
    2
# Step:    10     Total energy:       -2.33226226     Ry
H        4.629999880   5.000000000   5.000000000  -0.000000096   0.000000000   0.000000000
H        5.370000120   5.000000000   5.000000000   0.000000096   0.000000000   0.000000000
    2
# Step:    11     Total energy:       -2.33226225     Ry
H        4.629999857   5.000000000   5.000000000  -0.000000106   0.000000000   0.000000000
H        5.370000143   5.000000000   5.000000000   0.000000106   0.000000000   0.000000000
    2
# Step:    12     Total energy:       -2.33226224     Ry
H        4.629999832   5.000000000   5.000000000  -0.000000116   0.000000000   0.000000000
H        5.370000168   5.000000000   5.000000000   0.000000116   0.000000000   0.000000000
    2
# Step:    13     Total energy:       -2.33226223     Ry
H        4.629999805   5.000000000   5.000000000  -0.000000125   0.000000000   0.000000000
H        5.370000195   5.000000000   5.000000000   0.000000125   0.000000000   0.000000000
    2
# Step:    14     Total energy:       -2.33226221     Ry
H        4.629999776   5.000000000   5.000000000  -0.000000135   0.000000000   0.000000000
H        5.370000224   5.000000000   5.000000000   0.000000135   0.000000000   0.000000000
    2
# Step:    15     Total energy:       -2.33226219     Ry
H        4.629999745   5.000000000   5.000000000  -0.000000145   0.000000000   0.000000000
H        5.370000255   5.000000000   5.000000000   0.000000145   0.000000000   0.000000000
    2
# Step:    16     Total energy:       -2.33226217     Ry
H        4.629999712   5.000000000   5.000000000  -0.000000154   0.000000000   0.000000000
H        5.370000288   5.000000000   5.000000000   0.000000154   0.000000000   0.000000000
    2
# Step:    17     Total energy:       -2.33226214     Ry
H        4.629999677   5.000000000   5.000000000  -0.000000164   0.000000000   0.000000000
H        5.370000323   5.000000000   5.000000000   0.000000164   0.000000000   0.000000000
    2
# Step:    18     Total energy:       -2.33226211     Ry
H        4.629999640   5.000000000   5.000000000  -0.000000173   0.000000000   0.000000000
H        5.370000360   5.000000000   5.000000000   0.000000173   0.000000000   0.000000000
    2
# Step:    19     Total energy:       -2.33226207     Ry
H        4.629999602   5.000000000   5.000000000  -0.000000183   0.000000000   0.000000000
H        5.370000398   5.000000000   5.000000000   0.000000183   0.000000000   0.000000000
    2
# Step:    20     Total energy:       -2.33226202     Ry
H        4.629999561   5.000000000   5.000000000  -0.000000193   0.000000000   0.000000000
H        5.370000439   5.000000000   5.000000000   0.000000193   0.000000000   0.000000000
    2
# Step:    21     Total energy:       -2.33226196     Ry
H        4.629999518   5.000000000   5.000000000  -0.000000202   0.000000000   0.000000000
H        5.370000482   5.000000000   5.000000000   0.000000202   0.000000000   0.000000000
    2
# Step:    22     Total energy:       -2.33226189     Ry
H        4.629999473   5.000000000   5.000000000  -0.000000212   0.000000000   0.000000000
H        5.370000527   5.000000000   5.000000000   0.000000212   0.000000000   0.000000000
    2
# Step:    23     Total energy:       -2.33226181     Ry
H        4.629999426   5.000000000   5.000000000  -0.000000222   0.000000000   0.000000000
H        5.370000574   5.000000000   5.000000000   0.000000222   0.000000000   0.000000000
    2
# Step:    24     Total energy:       -2.33226171     Ry
H        4.629999377   5.000000000   5.000000000  -0.000000231   0.000000000   0.000000000
H        5.370000623   5.000000000   5.000000000   0.000000231   0.000000000   0.000000000
    2
# Step:    25     Total energy:       -2.33226160     Ry
H        4.629999327   5.000000000   5.000000000  -0.000000241   0.000000000   0.000000000
H        5.370000673   5.000000000   5.000000000   0.000000241   0.000000000   0.000000000
    2
# Step:    26     Total energy:       -2.33226148     Ry
H        4.629999274   5.000000000   5.000000000  -0.000000251   0.000000000   0.000000000
H        5.370000726   5.000000000   5.000000000   0.000000251   0.000000000   0.000000000
    2
# Step:    27     Total energy:       -2.33226133     Ry
H        4.629999219   5.000000000   5.000000000  -0.000000260   0.000000000   0.000000000
H        5.370000781   5.000000000   5.000000000   0.000000260   0.000000000   0.000000000
    2
# Step:    28     Total energy:       -2.33226117     Ry
H        4.629999162   5.000000000   5.000000000  -0.000000270   0.000000000   0.000000000
H        5.370000838   5.000000000   5.000000000   0.000000270   0.000000000   0.000000000
    2
# Step:    29     Total energy:       -2.33226099     Ry
H        4.629999103   5.000000000   5.000000000  -0.000000280   0.000000000   0.000000000
H        5.370000897   5.000000000   5.000000000   0.000000280   0.000000000   0.000000000
    2
# Step:    30     Total energy:       -2.33226079     Ry
H        4.629999043   5.000000000   5.000000000  -0.000000289   0.000000000   0.000000000
H        5.370000957   5.000000000   5.000000000   0.000000289   0.000000000   0.000000000
    2
# Step:    31     Total energy:       -2.33226057     Ry
H        4.629998980   5.000000000   5.000000000  -0.000000299   0.000000000   0.000000000
H        5.370001020   5.000000000   5.000000000   0.000000299   0.000000000   0.000000000
    2
# Step:    32     Total energy:       -2.33226033     Ry
H        4.629998915   5.000000000   5.000000000  -0.000000309   0.000000000   0.000000000
H        5.370001085   5.000000000   5.000000000   0.000000309   0.000000000   0.000000000
    2
# Step:    33     Total energy:       -2.33226006     Ry
H        4.629998848   5.000000000   5.000000000  -0.000000318   0.000000000   0.000000000
H        5.370001152   5.000000000   5.000000000   0.000000318   0.000000000   0.000000000
    2
# Step:    34     Total energy:       -2.33225977     Ry
H        4.629998779   5.000000000   5.000000000  -0.000000328   0.000000000   0.000000000
H        5.370001221   5.000000000   5.000000000   0.000000328   0.000000000   0.000000000
    2
# Step:    35     Total energy:       -2.33225946     Ry
H        4.629998709   5.000000000   5.000000000  -0.000000338   0.000000000   0.000000000
H        5.370001291   5.000000000   5.000000000   0.000000338   0.000000000   0.000000000
    2
# Step:    36     Total energy:       -2.33225913     Ry
H        4.629998636   5.000000000   5.000000000  -0.000000347   0.000000000   0.000000000
H        5.370001364   5.000000000   5.000000000   0.000000347   0.000000000   0.000000000
    2
# Step:    37     Total energy:       -2.33225878     Ry
H        4.629998561   5.000000000   5.000000000  -0.000000357   0.000000000   0.000000000
H        5.370001439   5.000000000   5.000000000   0.000000357   0.000000000   0.000000000
    2
# Step:    38     Total energy:       -2.33225841     Ry
H        4.629998484   5.000000000   5.000000000  -0.000000367   0.000000000   0.000000000
H        5.370001516   5.000000000   5.000000000   0.000000367   0.000000000   0.000000000
    2
# Step:    39     Total energy:       -2.33225800     Ry
H        4.629998406   5.000000000   5.000000000  -0.000000376   0.000000000   0.000000000
H        5.370001594   5.000000000   5.000000000   0.000000376   0.000000000   0.000000000
    2
# Step:    40     Total energy:       -2.33225757     Ry
H        4.629998325   5.000000000   5.000000000  -0.000000386   0.000000000   0.000000000
H        5.370001675   5.000000000   5.000000000   0.000000386   0.000000000   0.000000000
    2
# Step:    41     Total energy:       -2.33225712     Ry
H        4.629998242   5.000000000   5.000000000  -0.000000395   0.000000000   0.000000000
H        5.370001758   5.000000000   5.000000000   0.000000395   0.000000000   0.000000000
    2
# Step:    42     Total energy:       -2.33225663     Ry
H        4.629998157   5.000000000   5.000000000  -0.000000405   0.000000000   0.000000000
H        5.370001843   5.000000000   5.000000000   0.000000405   0.000000000   0.000000000
    2
# Step:    43     Total energy:       -2.33225613     Ry
H        4.629998071   5.000000000   5.000000000  -0.000000415   0.000000000   0.000000000
H        5.370001929   5.000000000   5.000000000   0.000000415   0.000000000   0.000000000
    2
# Step:    44     Total energy:       -2.33225560     Ry
H        4.629997982   5.000000000   5.000000000  -0.000000424   0.000000000   0.000000000
H        5.370002018   5.000000000   5.000000000   0.000000424   0.000000000   0.000000000
    2
# Step:    45     Total energy:       -2.33225506     Ry
H        4.629997891   5.000000000   5.000000000  -0.000000434   0.000000000   0.000000000
H        5.370002109   5.000000000   5.000000000   0.000000434   0.000000000   0.000000000
    2
# Step:    46     Total energy:       -2.33225449     Ry
H        4.629997798   5.000000000   5.000000000  -0.000000444   0.000000000   0.000000000
H        5.370002202   5.000000000   5.000000000   0.000000444   0.000000000   0.000000000
    2
# Step:    47     Total energy:       -2.33225392     Ry
H        4.629997704   5.000000000   5.000000000  -0.000000453   0.000000000   0.000000000
H        5.370002296   5.000000000   5.000000000   0.000000453   0.000000000   0.000000000
    2
# Step:    48     Total energy:       -2.33225332     Ry
H        4.629997607   5.000000000   5.000000000  -0.000000463   0.000000000   0.000000000
H        5.370002393   5.000000000   5.000000000   0.000000463   0.000000000   0.000000000
    2
# Step:    49     Total energy:       -2.33225271     Ry
H        4.629997508   5.000000000   5.000000000  -0.000000473   0.000000000   0.000000000
H        5.370002492   5.000000000   5.000000000   0.000000473   0.000000000   0.000000000
    2
# Step:    50     Total energy:       -2.33225207     Ry
H        4.629997408   5.000000000   5.000000000  -0.000000482   0.000000000   0.000000000
H        5.370002592   5.000000000   5.000000000   0.000000482   0.000000000   0.000000000
    2
# Step:    51     Total energy:       -2.33225141     Ry
H        4.629997305   5.000000000   5.000000000  -0.000000492   0.000000000   0.000000000
H        5.370002695   5.000000000   5.000000000   0.000000492   0.000000000   0.000000000
    2
# Step:    52     Total energy:       -2.33225072     Ry
H        4.629997200   5.000000000   5.000000000  -0.000000502   0.000000000   0.000000000
H        5.370002800   5.000000000   5.000000000   0.000000502   0.000000000   0.000000000
    2
# Step:    53     Total energy:       -2.33225001     Ry
H        4.629997094   5.000000000   5.000000000  -0.000000511   0.000000000   0.000000000
H        5.370002906   5.000000000   5.000000000   0.000000511   0.000000000   0.000000000
    2
# Step:    54     Total energy:       -2.33224928     Ry
H        4.629996985   5.000000000   5.000000000  -0.000000521   0.000000000   0.000000000
H        5.370003015   5.000000000   5.000000000   0.000000521   0.000000000   0.000000000
    2
# Step:    55     Total energy:       -2.33224853     Ry
H        4.629996874   5.000000000   5.000000000  -0.000000530   0.000000000   0.000000000
H        5.370003126   5.000000000   5.000000000   0.000000530   0.000000000   0.000000000
    2
# Step:    56     Total energy:       -2.33224777     Ry
H        4.629996762   5.000000000   5.000000000  -0.000000540   0.000000000   0.000000000
H        5.370003238   5.000000000   5.000000000   0.000000540   0.000000000   0.000000000
    2
# Step:    57     Total energy:       -2.33224700     Ry
H        4.629996647   5.000000000   5.000000000  -0.000000550   0.000000000   0.000000000
H        5.370003353   5.000000000   5.000000000   0.000000550   0.000000000   0.000000000
    2
# Step:    58     Total energy:       -2.33224622     Ry
H        4.629996531   5.000000000   5.000000000  -0.000000559   0.000000000   0.000000000
H        5.370003469   5.000000000   5.000000000   0.000000559   0.000000000   0.000000000
    2
# Step:    59     Total energy:       -2.33224542     Ry
H        4.629996412   5.000000000   5.000000000  -0.000000569   0.000000000   0.000000000
H        5.370003588   5.000000000   5.000000000   0.000000569   0.000000000   0.000000000
    2
# Step:    60     Total energy:       -2.33224462     Ry
H        4.629996291   5.000000000   5.000000000  -0.000000579   0.000000000   0.000000000
H        5.370003709   5.000000000   5.000000000   0.000000579   0.000000000   0.000000000
    2
# Step:    61     Total energy:       -2.33224381     Ry
H        4.629996169   5.000000000   5.000000000  -0.000000588   0.000000000   0.000000000
H        5.370003831   5.000000000   5.000000000   0.000000588   0.000000000   0.000000000
    2
# Step:    62     Total energy:       -2.33224299     Ry
H        4.629996044   5.000000000   5.000000000  -0.000000598   0.000000000   0.000000000
H        5.370003956   5.000000000   5.000000000   0.000000598   0.000000000   0.000000000
    2
# Step:    63     Total energy:       -2.33224216     Ry
H        4.629995918   5.000000000   5.000000000  -0.000000608   0.000000000   0.000000000
H        5.370004082   5.000000000   5.000000000   0.000000608   0.000000000   0.000000000
    2
# Step:    64     Total energy:       -2.33224133     Ry
H        4.629995789   5.000000000   5.000000000  -0.000000617   0.000000000   0.000000000
H        5.370004211   5.000000000   5.000000000   0.000000617   0.000000000   0.000000000
    2
# Step:    65     Total energy:       -2.33224050     Ry
H        4.629995658   5.000000000   5.000000000  -0.000000627   0.000000000   0.000000000
H        5.370004342   5.000000000   5.000000000   0.000000627   0.000000000   0.000000000
    2
# Step:    66     Total energy:       -2.33223966     Ry
H        4.629995526   5.000000000   5.000000000  -0.000000636   0.000000000   0.000000000
H        5.370004474   5.000000000   5.000000000   0.000000636   0.000000000   0.000000000
    2
# Step:    67     Total energy:       -2.33223882     Ry
H        4.629995391   5.000000000   5.000000000  -0.000000646   0.000000000   0.000000000
H        5.370004609   5.000000000   5.000000000   0.000000646   0.000000000   0.000000000
    2
# Step:    68     Total energy:       -2.33223798     Ry
H        4.629995255   5.000000000   5.000000000  -0.000000656   0.000000000   0.000000000
H        5.370004745   5.000000000   5.000000000   0.000000656   0.000000000   0.000000000
    2
# Step:    69     Total energy:       -2.33223714     Ry
H        4.629995116   5.000000000   5.000000000  -0.000000665   0.000000000   0.000000000
H        5.370004884   5.000000000   5.000000000   0.000000665   0.000000000   0.000000000
    2
# Step:    70     Total energy:       -2.33223630     Ry
H        4.629994976   5.000000000   5.000000000  -0.000000675   0.000000000   0.000000000
H        5.370005024   5.000000000   5.000000000   0.000000675   0.000000000   0.000000000
    2
# Step:    71     Total energy:       -2.33223547     Ry
H        4.629994833   5.000000000   5.000000000  -0.000000685   0.000000000   0.000000000
H        5.370005167   5.000000000   5.000000000   0.000000685   0.000000000   0.000000000
    2
# Step:    72     Total energy:       -2.33223464     Ry
H        4.629994689   5.000000000   5.000000000  -0.000000694   0.000000000   0.000000000
H        5.370005311   5.000000000   5.000000000   0.000000694   0.000000000   0.000000000
    2
# Step:    73     Total energy:       -2.33223382     Ry
H        4.629994542   5.000000000   5.000000000  -0.000000704   0.000000000   0.000000000
H        5.370005458   5.000000000   5.000000000   0.000000704   0.000000000   0.000000000
    2
# Step:    74     Total energy:       -2.33223300     Ry
H        4.629994394   5.000000000   5.000000000  -0.000000713   0.000000000   0.000000000
H        5.370005606   5.000000000   5.000000000   0.000000713   0.000000000   0.000000000
    2
# Step:    75     Total energy:       -2.33223220     Ry
H        4.629994243   5.000000000   5.000000000  -0.000000723   0.000000000   0.000000000
H        5.370005757   5.000000000   5.000000000   0.000000723   0.000000000   0.000000000
    2
# Step:    76     Total energy:       -2.33223139     Ry
H        4.629994091   5.000000000   5.000000000  -0.000000733   0.000000000   0.000000000
H        5.370005909   5.000000000   5.000000000   0.000000733   0.000000000   0.000000000
    2
# Step:    77     Total energy:       -2.33223060     Ry
H        4.629993937   5.000000000   5.000000000  -0.000000742   0.000000000   0.000000000
H        5.370006063   5.000000000   5.000000000   0.000000742   0.000000000   0.000000000
    2
# Step:    78     Total energy:       -2.33222982     Ry
H        4.629993780   5.000000000   5.000000000  -0.000000752   0.000000000   0.000000000
H        5.370006220   5.000000000   5.000000000   0.000000752   0.000000000   0.000000000
    2
# Step:    79     Total energy:       -2.33222904     Ry
H        4.629993622   5.000000000   5.000000000  -0.000000762   0.000000000   0.000000000
H        5.370006378   5.000000000   5.000000000   0.000000762   0.000000000   0.000000000
    2
# Step:    80     Total energy:       -2.33222827     Ry
H        4.629993461   5.000000000   5.000000000  -0.000000771   0.000000000   0.000000000
H        5.370006539   5.000000000   5.000000000   0.000000771   0.000000000   0.000000000
    2
# Step:    81     Total energy:       -2.33222749     Ry
H        4.629993299   5.000000000   5.000000000  -0.000000781   0.000000000   0.000000000
H        5.370006701   5.000000000   5.000000000   0.000000781   0.000000000   0.000000000
    2
# Step:    82     Total energy:       -2.33222673     Ry
H        4.629993135   5.000000000   5.000000000  -0.000000790   0.000000000   0.000000000
H        5.370006865   5.000000000   5.000000000   0.000000790   0.000000000   0.000000000
    2
# Step:    83     Total energy:       -2.33222597     Ry
H        4.629992968   5.000000000   5.000000000  -0.000000800   0.000000000   0.000000000
H        5.370007032   5.000000000   5.000000000   0.000000800   0.000000000   0.000000000
    2
# Step:    84     Total energy:       -2.33222521     Ry
H        4.629992800   5.000000000   5.000000000  -0.000000810   0.000000000   0.000000000
H        5.370007200   5.000000000   5.000000000   0.000000810   0.000000000   0.000000000
    2
# Step:    85     Total energy:       -2.33222446     Ry
H        4.629992629   5.000000000   5.000000000  -0.000000819   0.000000000   0.000000000
H        5.370007371   5.000000000   5.000000000   0.000000819   0.000000000   0.000000000
    2
# Step:    86     Total energy:       -2.33222372     Ry
H        4.629992457   5.000000000   5.000000000  -0.000000829   0.000000000   0.000000000
H        5.370007543   5.000000000   5.000000000   0.000000829   0.000000000   0.000000000
    2
# Step:    87     Total energy:       -2.33222298     Ry
H        4.629992283   5.000000000   5.000000000  -0.000000838   0.000000000   0.000000000
H        5.370007717   5.000000000   5.000000000   0.000000838   0.000000000   0.000000000
    2
# Step:    88     Total energy:       -2.33222225     Ry
H        4.629992107   5.000000000   5.000000000  -0.000000848   0.000000000   0.000000000
H        5.370007893   5.000000000   5.000000000   0.000000848   0.000000000   0.000000000
    2
# Step:    89     Total energy:       -2.33222153     Ry
H        4.629991928   5.000000000   5.000000000  -0.000000858   0.000000000   0.000000000
H        5.370008072   5.000000000   5.000000000   0.000000858   0.000000000   0.000000000
    2
# Step:    90     Total energy:       -2.33222081     Ry
H        4.629991748   5.000000000   5.000000000  -0.000000867   0.000000000   0.000000000
H        5.370008252   5.000000000   5.000000000   0.000000867   0.000000000   0.000000000
    2
# Step:    91     Total energy:       -2.33222009     Ry
H        4.629991566   5.000000000   5.000000000  -0.000000877   0.000000000   0.000000000
H        5.370008434   5.000000000   5.000000000   0.000000877   0.000000000   0.000000000
    2
# Step:    92     Total energy:       -2.33221939     Ry
H        4.629991381   5.000000000   5.000000000  -0.000000887   0.000000000   0.000000000
H        5.370008619   5.000000000   5.000000000   0.000000887   0.000000000   0.000000000
    2
# Step:    93     Total energy:       -2.33221871     Ry
H        4.629991195   5.000000000   5.000000000  -0.000000896   0.000000000   0.000000000
H        5.370008805   5.000000000   5.000000000   0.000000896   0.000000000   0.000000000
    2
# Step:    94     Total energy:       -2.33221803     Ry
H        4.629991007   5.000000000   5.000000000  -0.000000906   0.000000000   0.000000000
H        5.370008993   5.000000000   5.000000000   0.000000906   0.000000000   0.000000000
    2
# Step:    95     Total energy:       -2.33221736     Ry
H        4.629990817   5.000000000   5.000000000  -0.000000915   0.000000000   0.000000000
H        5.370009183   5.000000000   5.000000000   0.000000915   0.000000000   0.000000000
    2
# Step:    96     Total energy:       -2.33221671     Ry
H        4.629990625   5.000000000   5.000000000  -0.000000925   0.000000000   0.000000000
H        5.370009375   5.000000000   5.000000000   0.000000925   0.000000000   0.000000000
    2
# Step:    97     Total energy:       -2.33221607     Ry
H        4.629990430   5.000000000   5.000000000  -0.000000935   0.000000000   0.000000000
H        5.370009570   5.000000000   5.000000000   0.000000935   0.000000000   0.000000000
    2
# Step:    98     Total energy:       -2.33221544     Ry
H        4.629990234   5.000000000   5.000000000  -0.000000944   0.000000000   0.000000000
H        5.370009766   5.000000000   5.000000000   0.000000944   0.000000000   0.000000000
    2
# Step:    99     Total energy:       -2.33221484     Ry
H        4.629990036   5.000000000   5.000000000  -0.000000954   0.000000000   0.000000000
H        5.370009964   5.000000000   5.000000000   0.000000954   0.000000000   0.000000000
    2
# Step:   100     Total energy:       -2.33221425     Ry
H        4.629989836   5.000000000   5.000000000  -0.000000963   0.000000000   0.000000000
H        5.370010164   5.000000000   5.000000000   0.000000963   0.000000000   0.000000000
    2
# Step:   101     Total energy:       -2.33221368     Ry
H        4.629989634   5.000000000   5.000000000  -0.000000973   0.000000000   0.000000000
H        5.370010366   5.000000000   5.000000000   0.000000973   0.000000000   0.000000000
    2
# Step:   102     Total energy:       -2.33221313     Ry
H        4.629989430   5.000000000   5.000000000  -0.000000983   0.000000000   0.000000000
H        5.370010570   5.000000000   5.000000000   0.000000983   0.000000000   0.000000000
    2
# Step:   103     Total energy:       -2.33221260     Ry
H        4.629989224   5.000000000   5.000000000  -0.000000992   0.000000000   0.000000000
H        5.370010776   5.000000000   5.000000000   0.000000992   0.000000000   0.000000000
    2
# Step:   104     Total energy:       -2.33221209     Ry
H        4.629989016   5.000000000   5.000000000  -0.000001002   0.000000000   0.000000000
H        5.370010984   5.000000000   5.000000000   0.000001002   0.000000000   0.000000000
    2
# Step:   105     Total energy:       -2.33221160     Ry
H        4.629988806   5.000000000   5.000000000  -0.000001011   0.000000000   0.000000000
H        5.370011194   5.000000000   5.000000000   0.000001011   0.000000000   0.000000000
    2
# Step:   106     Total energy:       -2.33221113     Ry
H        4.629988594   5.000000000   5.000000000  -0.000001021   0.000000000   0.000000000
H        5.370011406   5.000000000   5.000000000   0.000001021   0.000000000   0.000000000
    2
# Step:   107     Total energy:       -2.33221068     Ry
H        4.629988380   5.000000000   5.000000000  -0.000001031   0.000000000   0.000000000
H        5.370011620   5.000000000   5.000000000   0.000001031   0.000000000   0.000000000
    2
# Step:   108     Total energy:       -2.33221025     Ry
H        4.629988164   5.000000000   5.000000000  -0.000001040   0.000000000   0.000000000
H        5.370011836   5.000000000   5.000000000   0.000001040   0.000000000   0.000000000
    2
# Step:   109     Total energy:       -2.33220985     Ry
H        4.629987946   5.000000000   5.000000000  -0.000001050   0.000000000   0.000000000
H        5.370012054   5.000000000   5.000000000   0.000001050   0.000000000   0.000000000
    2
# Step:   110     Total energy:       -2.33220947     Ry
H        4.629987726   5.000000000   5.000000000  -0.000001059   0.000000000   0.000000000
H        5.370012274   5.000000000   5.000000000   0.000001059   0.000000000   0.000000000
    2
# Step:   111     Total energy:       -2.33220911     Ry
H        4.629987504   5.000000000   5.000000000  -0.000001069   0.000000000   0.000000000
H        5.370012496   5.000000000   5.000000000   0.000001069   0.000000000   0.000000000
    2
# Step:   112     Total energy:       -2.33220877     Ry
H        4.629987280   5.000000000   5.000000000  -0.000001079   0.000000000   0.000000000
H        5.370012720   5.000000000   5.000000000   0.000001079   0.000000000   0.000000000
    2
# Step:   113     Total energy:       -2.33220845     Ry
H        4.629987054   5.000000000   5.000000000  -0.000001088   0.000000000   0.000000000
H        5.370012946   5.000000000   5.000000000   0.000001088   0.000000000   0.000000000
    2
# Step:   114     Total energy:       -2.33220815     Ry
H        4.629986826   5.000000000   5.000000000  -0.000001098   0.000000000   0.000000000
H        5.370013174   5.000000000   5.000000000   0.000001098   0.000000000   0.000000000
    2
# Step:   115     Total energy:       -2.33220788     Ry
H        4.629986596   5.000000000   5.000000000  -0.000001107   0.000000000   0.000000000
H        5.370013404   5.000000000   5.000000000   0.000001107   0.000000000   0.000000000
    2
# Step:   116     Total energy:       -2.33220763     Ry
H        4.629986364   5.000000000   5.000000000  -0.000001117   0.000000000   0.000000000
H        5.370013636   5.000000000   5.000000000   0.000001117   0.000000000   0.000000000
    2
# Step:   117     Total energy:       -2.33220739     Ry
H        4.629986130   5.000000000   5.000000000  -0.000001127   0.000000000   0.000000000
H        5.370013870   5.000000000   5.000000000   0.000001127   0.000000000   0.000000000
    2
# Step:   118     Total energy:       -2.33220718     Ry
H        4.629985894   5.000000000   5.000000000  -0.000001136   0.000000000   0.000000000
H        5.370014106   5.000000000   5.000000000   0.000001136   0.000000000   0.000000000
    2
# Step:   119     Total energy:       -2.33220698     Ry
H        4.629985657   5.000000000   5.000000000  -0.000001146   0.000000000   0.000000000
H        5.370014343   5.000000000   5.000000000   0.000001146   0.000000000   0.000000000
    2
# Step:   120     Total energy:       -2.33220680     Ry
H        4.629985417   5.000000000   5.000000000  -0.000001155   0.000000000   0.000000000
H        5.370014583   5.000000000   5.000000000   0.000001155   0.000000000   0.000000000
    2
# Step:   121     Total energy:       -2.33220664     Ry
H        4.629985175   5.000000000   5.000000000  -0.000001165   0.000000000   0.000000000
H        5.370014825   5.000000000   5.000000000   0.000001165   0.000000000   0.000000000
    2
# Step:   122     Total energy:       -2.33220649     Ry